# vtk DataFile Version 2.0
Exported by getfem++
ASCII
DATASET UNSTRUCTURED_GRID
POINTS 5071 float
 11.6892 44.0532 2.9838
 11.6892 43.5328 7.94118
 11.6892 48.0068 5.8
 7.5508 48.0068 3.04364
 -34.1954 2.11398 -4.2
 -30.1057 1.86682 -4.2
 -32.266 3.56927 0.621278
 -29.5037 0.266046 -0.169787
 -3.23179 -30.271 -32.4385
 1.62812 -26.6881 -35.7324
 1.62812 -26.6881 -30.4751
 0.730425 -32.0344 -35.6914
 11.6892 -32.8658 -33.2539
 8.02894 -36.9932 -29.4603
 11.6892 -33.333 -29.4603
 5.47817 -30.7487 -32.1233
 -65.2933 -41.9932 -100.708
 -68.1886 -21.2792 -123.5
 -88.3108 -19.9692 -101.575
 -54.1859 -5.06031 -83.2363
 -29.7363 34.1555 -5
 -34.82 35.3906 -10.2373
 -32.9929 37.2751 -5
 -28.8351 36.1865 -10.4505
 -23.1715 13.6804 -4.2
 -22.4106 17.0499 -4.2
 -25.4756 15.9292 -4.2
 -22.4916 17.4248 0.671216
 -34.2846 -16.4192 -25
 -31.0288 -13.3713 -25
 -35.472 -12.4519 -25
 -35.8921 -14.3053 -19.8481
 2.93065 39.0594 -5
 6.2598 35.5532 -11.7673
 6.88798 34.9799 -5
 0.911314 35.7427 -10.1622
 7.52953 -9.47744 -45.8
 11.6892 -6.99324 -45.8
 11.6892 -4.40132 -41.6991
 11.6892 -9.49324 -41.4699
 29.8482 -22.2697 113.5
 51.6892 3.00676 86.1936
 51.6892 -19.9692 91.5746
 14.7463 -10.811 83.2847
 -16.3624 0.757473 -25.8
 -15.6499 4.67012 -29.6046
 -14.4641 3.2395 -25.8
 -16.1159 -0.614737 -29.9793
 -27.2325 -0.936981 25.6197
 -25.8576 5.64588 20.996
 -21.2705 2.91014 22.4424
 -23.7597 -3.28852 21.5714
 -48.3108 -16.8512 -34.3405
 -48.3108 -16.9932 -38.4109
 -48.3108 -12.3872 -37.0843
 -43.9805 -18.8351 -36.5221
 16.6892 -11.9932 16.6
 22.0299 -15.3642 25.6984
 16.6892 -16.9932 16.6
 31.5015 -23.5407 14.5506
 -13.2104 6.16077 9.44149
 -16.1386 4.45839 11.8576
 -13.4392 1.05873 10.6995
 -10.0967 4.06838 11.7015
 -39.7477 2.79113 -18.1429
 -43.2557 4.17921 -14.5024
 -39.872 1.60079 -11.4383
 -37.3442 4.2335 -14.349
 -88.3108 -20.2349 38.4031
 -58.4126 -14.784 54.2102
 -68.3798 -14.6291 32.6195
 -64.3898 1.11122 45.1182
 -16.2159 -25.0901 -5
 -15.2366 -21.4547 -10.0755
 -11.935 -26.3573 -5
 -15.6379 -27.217 -10.346
 -3.79001 6.61819 -19.1743
 -4.62124 4.52384 -14.6747
 1.14826 4.00558 -15
 -0.374605 9.46874 -16.4334
 -28.7395 -23.7949 -11.3456
 -26.5381 -17.9016 -10.4726
 -24.3466 -22.2372 -9.83426
 -25.4713 -23.3103 -14.7578
 -15.6513 4.67181 38.8963
 -22.1397 6.16288 28.6652
 -23.1835 12.8974 37.5903
 -14.9925 8.68111 31.2108
 -15.8896 -33.6297 24.9445
 -8.07789 -34.1428 24.2494
 -13.2061 -33.387 16.6
 -11.9682 -28.2612 21.9066
 -19.1854 -21.9745 1.87253
 -23.4346 -19.0263 5.8
 -20.6072 -16.5455 0.706917
 -23.4718 -20.8031 -0.00568131
 -28.5255 14.9302 -11.104
 -27.1055 11.2637 -12.9174
 -23.5257 15.531 -9.83844
 -26.2705 10.9718 -9.05238
 11.6892 15.2561 8.94456
 11.6892 20.1128 11.4144
 11.6892 19.2812 7.8034
 5.06257 18.9975 9.17751
 -26.2983 -29.5126 -45.8
 -30.9695 -27.1195 -45.8
 -30.8658 -32.55 -45.8
 -31.6082 -29.8479 -39.3004
 -39.6506 18.0068 -45.8
 -39.6506 23.0067 -45.8
 -43.9807 20.5068 -45.8
 -41.9314 19.0562 -39.8072
 -37.4302 -19.5166 -25
 -34.3609 -19.4566 -18.7193
 -38.8242 -18.0438 -20.6324
 12.6783 48.0068 -81.4649
 4.51213 48.0068 -102.122
 28.6717 48.0068 -100.708
 17.5184 11.134 -83.1792
 -25.8108 48.0068 -41.4758
 -23.195 48.0068 -37.5018
 -28.3107 48.0068 -37.1755
 -28.3091 42.5488 -40.0514
 -0.030546 -12.4283 16.6
 1.38455 -16.739 16.6
 4.33055 -13.3866 16.6
 -0.538614 -14.9827 22.9433
 -44.12 15.7004 15.8
 -40.1097 18.4836 15.8
 -39.9358 13.2972 15.8
 -43.9388 18.1967 11.4036
 -32.8265 40.876 -4.2
 -32.9929 37.2751 -4.2
 -28.6721 39.2645 -4.2
 -30.4811 37.0484 1.76394
 -4.19764 -10.5384 -11.5735
 -1.39661 -9.01705 -15.4785
 2.14284 -7.61838 -11.6019
 -0.164531 -13.1817 -10.0385
 -10.472 -24.127 -11.0354
 11.6892 -32.5193 -12.8587
 11.6892 -28.7488 -17.0039
 11.6892 -33.0397 -17.8162
 5.47176 -31.937 -13.0521
 -5.57966 -7.88217 -4.2
 -8.49722 -11.1825 -4.2
 -4.17944 -12.0231 -4.2
 -8.47959 -9.01186 0.300191
 -29.0465 13.2615 -32.0689
 -33.2295 11.9048 -34.8461
 -34.0602 16.9392 -35.8546
 -28.7212 16.775 -35.3432
 -44.2119 -41.9932 28.9579
 -35.4114 -41.9932 31.2049
 -43.9121 -32.3129 26.239
 -40.3905 -30.6075 37.1929
 -37.1994 -11.1138 -35.8346
 -30.6565 -9.42164 -38.8272
 -35.1598 -11.7072 -40.8381
 -33.9158 -7.41565 -35.6917
 -13.2104 6.16077 -11.3585
 -13.5379 11.184 -9.63908
 -14.1131 9.85131 -14.0838
 -17.1608 9.75745 -11.8625
 -43.3489 -13.9195 -5
 -45.3779 -9.49324 -5
 -41.58 -8.83879 -5
 -39.9707 -12.9083 -9.86008
 3.80677 18.3295 -5
 1.52237 15.4691 -10.1489
 5.63702 18.0657 -11.3355
 6.16246 13.2378 -9.50974
 -19.1104 37.2753 5.8
 -13.7917 41.7169 3.20374
 -19.3412 41.6725 1.52416
 -18.217 42.5632 6.78462
 6.68919 48.0068 16.6
 4.085 44.0363 16.6
 8.97449 43.3758 16.6
 4.18919 48.0068 20.9478
 -0.810811 48.0068 20.9665
 3.75504 41.75 22.5728
 -7.47997 28.3169 -15
 -10.1489 23.11 -11.7049
 -9.40488 28.0487 -10.1406
 -12.4542 27.2389 -15.0478
 -5.44468 -27.5733 29.9492
 -0.348411 -34.4636 23.755
 6.93717 -31.7427 26.6056
 1.79275 -32.5509 35.76
 -40.7521 25.8906 9.15594
 -40.0364 30.6427 4.26575
 -42.9933 30.555 10.4849
 -38.2513 29.5017 11.3486
 -15.6513 4.67181 24.3264
 -10.0466 0.317261 23.3593
 -17.2374 -3.38955 24.5383
 -14.3657 1.12741 21.0895
 -39.651 28.0067 -45.8
 -43.9808 25.5067 -45.8
 -43.2492 24.9381 -41.4115
 -5.26894 -26.7607 -45.8
 -0.550323 -24.3229 -45.8
 -5.03144 -21.9553 -45.8
 -3.40852 -23.3484 -39.1796
 -53.3108 18.0068 -46.6
 -32.9091 3.00676 -46.6
 -40.0295 21.9861 -74.2346
 -6.31735 6.00279 10.6264
 -9.98067 8.44552 11.6104
 -8.3652 6.28493 15.8
 -6.10114 10.515 12.0769
 -32.3108 3.00676 -123.5
 -64.863 3.00676 -123.5
 -46.2155 -18.3841 -123.5
 -8.3652 6.28493 -5
 -6.31735 6.00279 -10.1736
 -9.98067 8.44552 -9.18963
 -6.10114 10.515 -8.72309
 -35.8302 48.0068 0.302303
 -35.6499 44.5517 -4.2
 -33.9339 42.1714 1.73833
 -39.7407 42.6274 1.47703
 -17.2716 -14.8998 82.4885
 -29.9262 -25.596 75.7889
 -28.4034 -24.2499 95.207
 -35.8507 1.69025 92.7366
 -3.79245 6.61809 1.6249
 -4.621 4.52391 6.12523
 1.14826 4.00558 5.8
 -0.325502 9.46347 4.35516
 -21.1278 -32.9805 -4.2
 -23.8082 -27.8672 -4.2
 -25.9949 -32.7933 -4.2
 -22.5368 -32.242 2.87545
 -29.9398 41.291 7.99464
 -32.2425 36.0082 10.2231
 -27.3826 34.8927 7.32364
 -26.3442 38.1673 11.2564
 -12.2461 0.581564 -25.8
 -23.9434 16.4903 -35.856
 -18.444 13.9107 -39.1107
 -19.4913 19.0855 -37.5056
 -18.5289 15.7662 -34.7143
 -10.7116 48.0068 -28.7656
 -11.4297 43.4981 -25.8
 -15.3148 48.0068 -29.2881
 -13.2323 41.2992 -32.1032
 -6.46607 -3.63857 -25.8
 -1.96784 -1.33292 -25.8
 -2.53855 -1.51888 -31.9948
 -5.70116 1.28319 -30.2906
 -52.4411 -41.9932 32.9463
 -27.71 26.5647 -4.2
 -25.9004 21.6787 0.0224116
 -24.6549 23.5551 -4.2
 -23.2072 25.1706 -0.343246
 -41.7654 -8.58405 -11.7239
 -39.1111 -3.53758 -10.1112
 -35.0543 -8.06586 -11.6774
 -38.3485 -8.49019 -15.1822
 -41.0901 8.93854 -25.8
 -37.5582 9.33592 -25.8
 -39.7255 5.80305 -25.8
 -39.1853 7.90285 -32.0696
 -31.1954 3.61647 16.6
 -33.3406 4.58983 24.1403
 -35.2791 3.25153 16.6
 -30.8341 -0.26796 21.6101
 -35.8073 48.0068 11.5212
 -32.7587 48.0068 7.2813
 -30.8108 48.0068 11.6817
 -35.4307 41.8138 10.1285
 -44.2489 10.7328 -5
 -44.12 15.7004 -5
 -39.9358 13.2972 -5
 -40.909 10.2556 -9.4514
 -29.6498 8.77844 -5
 -31.2864 12.514 -5
 -26.8972 12.2834 -5
 -24.3088 -23.0346 -25
 -20.3771 -24.1844 -25
 -21.3426 -19.7321 -25
 -22.4998 -23.8497 -18.9899
 -20.6462 37.9145 -15
 -24.9302 41.5456 -18.7066
 -21.4614 43.09 -14.5883
 -20.6976 40.2032 -20.4381
 0.511781 -17.9887 -37.1038
 -3.4851 -17.1579 -40.6289
 -4.12203 -17.1566 -35.4702
 11.6892 -6.58989 -37.1077
 11.6892 -2.00265 -38.4916
 4.85822 -4.11102 -39.6917
 7.35906 15.5068 -5
 11.6892 15.5068 -8.05899
 -23.545 1.26397 -40.3458
 -22.4498 4.99583 -36.5254
 -28.4642 3.21578 -39.0463
 -26.2533 3.35564 -35.1368
 -48.3108 10.8022 -11.9362
 -48.3108 14.8616 -8.65573
 -48.3108 10.5156 -7.9955
 -42.034 14.1573 -11.7041
 -38.7701 31.506 -25
 -39.6935 27.2114 -25
 -35.3038 28.3079 -25
 -40.2849 30.0615 -19.3849
 -9.12172 48.0068 98.8187
 5.44355 48.0068 94.6722
 9.50065 30.2568 113.5
 -11.314 28.1101 87.0272
 32.123 -41.9932 -51.0372
 51.6892 -16.3372 -49.4375
 33.086 -41.9932 -75.4885
 22.4626 -16.01 -73.8265
 -16.1187 18.6431 46.8002
 -22.589 7.66816 49.5034
 -3.31916 3.02341 52.419
 -6.80147 15.8168 56.8176
 -12.0083 -3.43122 16.6
 -12.4156 0.416826 16.6
 -15.2153 -2.7251 16.6
 4.35875 30.1428 16.6
 9.79693 30.3935 24.1526
 8.58576 32.796 16.6
 1.90732 31.2398 22.0274
 -10.1298 -7.29425 -39.2847
 -6.57662 -12.8269 -35.719
 -8.61114 -12.35 -40.7971
 -5.25043 -7.94722 -37.3146
 -28.7607 -28.9501 15.8
 -30.8432 -32.8933 15.8
 -33.6169 -28.6169 15.8
 -31.4574 -29.8227 8.76926
 -50.312 -41.9932 74.0237
 -37.0191 -41.9932 76.2912
 -38.6817 -17.5499 61.2926
 -51.1424 48.0068 45.6056
 -56.3096 24.1927 38.5962
 -44.6443 30.4259 50.0132
 -63.823 27.5632 57.8024
 -39.8358 38.3479 25.9498
 -43.5737 30.5131 24.4379
 -40.2592 35.7142 16.6
 -37.1818 29.5747 22.3379
 1.97244 13.8687 -14.8729
 4.97744 19.425 -18.0933
 6.32219 14.1862 -19.633
 0.762735 14.0125 -20.0433
 -30.8059 -10.2513 25.2925
 -23.2005 -17.2952 26.0927
 -27.6161 -16.3637 22.0733
 -26.4122 -11.3514 21.1471
 23.7879 20.456 52.3584
 26.1901 32.2947 35.2626
 51.6892 22.3508 39.4375
 19.4666 21.8286 39.225
 -19.4372 -4.37423 2.10332
 -22.5805 -8.31693 0.668617
 -23.7499 -6.53087 5.45665
 -23.8466 -4.19449 1.69156
 -4.32211 -16.8625 -18.3107
 -0.28865 -19.0102 -15.9156
 0.75848 -13.5568 -15
 -4.60602 -13.2059 -15.3999
 5.90282 2.23342 -18.78
 5.03697 8.83542 -18.4753
 6.56839 3.85745 -13.6806
 -43.9807 5.50676 15.8
 -48.3108 6.34204 12.1662
 -44.2489 10.7328 15.8
 -41.8084 5.84627 11.3245
 -6.3886 48.0068 37.5838
 -0.742515 48.0068 48.4876
 -12.1726 48.0068 46.8564
 -1.82176 37.0238 37.105
 -10.8108 48.0068 -32.8096
 -7.40541 41.9636 -31.2486
 -37.3603 36.0509 -4.2
 -38.7701 31.506 -4.2
 -34.2147 32.8366 -4.2
 -35.274 33.455 1.66425
 11.7175 -17.3532 27.1176
 2.35302 -23.6767 25.5463
 -0.538614 -14.9827 30.7557
 7.62016 -16.0892 22.3129
 -17.4207 11.9065 -4.2
 -16.3545 15.2927 -4.2
[...]
POINT_DATA 5071


SCALARS Electric_potential float 1
LOOKUP_TABLE default
 32 32 32 32 32 32 32 32 32 32 32 32 32 32 32 32 32 32 32 32 32 32 32 32 32 32 32 32 32 32 32 32 32 32 32 32 32 32 32 32 32 32 32 32 32 32 32 32 32 32 32 32 32 32 32 32 32 32 32 32 32 32 32 32 32 32 32 32 32 32 32 32 32 32 32 32 32 32 32 32 32 32 32 32 32 32 32 32 32 32 32 32 32 32 32 32 32 32 32 32 32 32 32 32 32 32 32 32 32 32 32 32 32 32 32 32 32 32 32 32 32 32 32 32 32 32 32 32 32 32 32 32 32 32 32 32 32 32 32 32 32 32 32 32 32 32 32 32 32 32 32 32 32 32 32 32 32 32 32 32 32 32 32 32 32 32 32 32 32 32 32 32 32 32 32 32 32 32 32 32 32 32 32 32 32 32 32 32 32 32 32 32 32 32 32 32 32 32 32 32 32 32 32 32 32 32 32 32 32 32 32 32 32 32 32 32 32 32 32 32 32 32 32 32 32 32 32 32 32 32 32 32 32 32 32 32 32 32 32 32 32 32 32 32 32 32 32 32 32 32 32 32 32 32 32 32 32 32 32 32 32 32 32 32 32 32 32 32 32 32 32 32 32 32 32 32 32 32 32 32 32 32 32 32 32 32 32 32 32 32 32 32 32 32 32 32 32 32 32 32 32 32 32 32 32 32 32 32 32 32 32 32 32 32 32 32 32 32 32 32 32 32 32 32 32 32 32 32 32 32 32 32 32 32 32 32 32 32 32 32 32 32 32 32 32 32 32 32 32 32 32 32 32 32 32 32 32 32 32 32 32 32 32 32 32 32 32 32 32 32 32 32 32 32 32 32 32 32 32 32 32 32 32 32 32 32 32 32 32 32 32 32 32 32 32 32 32 32 32 32 32 32 32 32 32 32 32 32 32 32 32 32 32 32 32 32 32 32 32 32 32 32 32 32 32 32 32 32 32 32 32 32 32 32 32 32 32 32 32 32 32 32 32 32 32 32 32 32 32 32 32 32 32 32 32 32 32 32 32 32 32 32 32 32 32 32 32 32 32 32 32 32 32 32 32 32 32 32 32 32 32 32 32 32 32 32 32 32 32 32 32 32 32 32 32 32 32 32 32 32 32 32 32 32 32 32 32 32 32 32 32 32 32 32 32 32 32 32 32 32 32 32 32 32 32 32 32 32 32 32 32 32 32 32 32 32 32 32 32 32 32 32 32 32 32 32 32 32 32 32 32 32 32 32 32 32 32 32 32 32 32 32 32 32 32 32 32 32 32 32 32 32 32 32 32 32 32 32 32 32 32 32 32 32 32 32 32 32 32 32 32 32 32 32 32 32 32 32 32 32 32 32 32 32 32 32 32 32 32 32 32 32 32 32 32 32 32 32 32 32 32 32 32 32 32 32 32 32 32 32 32 32 32 32 32 32 32 32 32 32 32 32 32 32 32 32 32 32 32 32 32 32 32 32 32 32 32 32 32 32 32 32 32 32 32 32 32 32 32 32 32 32 32 32 32 32 32 32 32 32 32 32 32 32 32 32 32 32 32 32 32 32 32 32 32 32 32 32 32 32 32 32 32 32 32 32 32 32 32 32 32 32 32 32 32 32 32 32 32 32 32 32 32 32 32 32 32 32 32 32 32 32 32 32 32 32 32 32 32 32 32 32 32 32 32 32 32 32 32 32 32 32 32 32 32 32 32 32 32 32 32 32 32 32 32 32 32 32 32 32 32 32 32 32 32 32 32 32 32 32 32 32 32 32 32 32 32 32 32 32 32 32 32 32 32 32 32 32 32 32 32 32 32 32 32 32 32 32 32 32 32 32 32 32 32 32 32 32 32 32 32 32 32 32 32 32 32 32 32 32 32 32 32 32 32 32 32 32 32 32 32 32 32 32 32 32 32 32 32 32 32 32 32 32 32 32 32 32 32 32 32 32 32 32 32 32 32 32 32 32 32 32 32 32 32 32 32 32 32 32 32 32 32 32 32 32 32 32 32 32 32 32 32 32 32 32 32 32 32 32 32 32 32 32 32 32 32 32 32 32 32 32 32 32 32 32 32 32 32 32 32 32 32 32 32 32 32 32 32 32 32 32 32 32 32 32 32 32 32 32 32 32 32 32 32 32 32 32 32 32 32 32 32 32 32 32 32 32 32 32 32 32 32 32 32 32 32 32 32 32 32 32 32 32 32 32 32 32 32 32 32 32 32 32 32 32 32 32 32 32 32 32 32 32 32 32 32 32 32 32 32 32 32 32 32 32 32 32 32 32 32 32 32 32 32 32 32 32 32 32 32 32 32 32 32 32 32 32 32 32 32 32 32 32 32 32 32 32 32 32 32 32 32 32 32 32 32 32 32 32 32 32 32 32 32 32 32 32 32 32 32 32 32 32 32 32 32 32 32 32 32 32 32 32 32 32 32 32 32 32 32 32 32 32 32 32 32 32 32 32 32 32 32 32 32 32 32 32 32 32 32 32 32 32 32 32 32 32 32 32 32 32 32 32 32 32 32 32 32 32 32 32 32 32 32 32 32 32 32 32 32 32 32 32 32 32 32 32 32 32 32 32 32 32 32 32 32 32 32 32 32 32 32 32 32 32 32 32 32 32 32 32 32 32 32 32 32 32 32 32 32 32 32 32 32 32 32 32 32 32 32 32 32 32 32 32 32 32 32 32 32 32 32 32 32 32 32 32 32 32 32 32 32 32 32 32 32 32 32 32 32 32 32 32 32 32 32 32 32 32 32 32 32 32 32 32 32 32 32 32 32 32 32 32 32 32 32 32 32 32 32 32 32 32 32 32 32 32 32 32 32 32 32 32 32 32 32 32 32 32 32 32 32 32 32 32 32 32 32 32 32 32 32 32 32 32 32 32 32 32 32 32 32 32 32 32 32 32 32 32 32 32 32 32 32 32 32 32 32 32 32 32 32 32 32 32 32 32 32 32 32 32 32 32 32 32 32 32 32 32 32 32 32 32 32 32 32 32 32 32 32 32 32 32 32 32 32 32 32 32 32 32 32 32 32 32 32 32 32 32 32 32 32 32 32 32 32 32 32 32 32 32 32 32 32 32 32 32 32 32 32 32 32 32 32 32 32 32 32 32 32 32 32 32 32 32 32 32 32 32 32 32 32 32 32 32 32 32 32 32 32 32 32 32 32 32 32 32 32 32 32 32 32 32 32 32 32 32 32 32 32 32 32 32 32 32 32 32 32 32 32 32 32 32 32 32 32 32 32 32 32 32 32 32 32 32 32 32 32 32 32 32 32 32 32 32 32 32 32 32 32 32 32 32 32 32 32 32 32 32 32 32 32 32 32 32 32 32 32 32 32 32 32 32 32 32 32 32 32 32 32 32 32 32 32 32 32 32 32 32 32 32 32 32 32 32 32 32 32 32 32 32 32 32 32 32 32 32 32 32 32 32 32 32 32 32 32 32 32 32 32 32 32 32 32 32 32 32 32 32 32 32 32 32 32 32 32 32 32 32 32 32 32 32 32 32 32 32 32 32 32 32 32 32 32 32 32 32 32 32 32 32 32 32 32 32 32 32 32 32 32 32 32 32 32 32 32 32 32 32 32 32 32 32 32 32 32 32 32 32 32 32 32 32 32 32 32 32 32 32 32 32 32 32 32 32 32 32 32 32 32 32 32 32 32 32 32 32 32 32 32 32 32 32 32 32 32 32 32 32 32 32 32 32 32 32 32 32 32 32 32 32 32 32 32 32 32 32 32 32 32 32 32 32 32 32 32 32 32 32 32 32 32 32 32 32 32 32 32 32 32 32 32 32 32 32 32 32 32 32 32 32 32 32 32 32 32 32 32 32 32 32 32 32 32 32 32 32 32 32 32 32 32 32 32 32 32 32 32 32 32 32 32 32 32 32 32 32 32 32 32 32 32 32 32 32 32 32 32 32 32 32 32 32 32 32 32 32 32 32 32 32 32 32 32 32 32 32 32 32 32 32 32 32 32 32 32 32 32 32 32 32 32 32 32 32 32 32 32 32 32 32 32 32 32 32 32 32 32 32 32 32 32 32 32 32 32 32 32 32 32 32 32 32 32 32 32 32 32 32 32 32 32 32 32 32 32 32 32 32 32 32 32 32 32 32 32 32 32 32 32 32 32 32 32 32 32 32 32 32 32 32 32 32 32 32 32 32 32 32 32 32 32 32 32 32 32 32 32 32 32 32 32 32 32 32 32 32 32 32 32 32 32 32 32 32 32 32 32 32 32 32 32 32 32 32 32 32 32 32 32 32 32 32 32 32 32 32 32 32 32 32 32 32 32 32 32 32 32 32 32 32 32 32 32 32 32 32 32 32 32 32 32 32 32 32 32 32 32 32 32 32 32 32 32 32 32 32 32 32 32 32 32 32 32 32 32 32 32 32 32 32 32 32 32 32 32 32 32 32 32 32 32 32 32 32 32 32 32 32 32 32 32 32 32 32 32 32 32 32 32 32 32 32 32 32 32 32 32 32 32 32 32 32 32 32 32 32 32 32 32 32 32 32 32 32 32 32 32 32 32 32 32 32 32 32 32 32 32 32 32 32 32 32 32 32 32 32 32 32 32 32 32 32 32 32 32 32 32 32 32 32 32 32 32 32 32 32 32 32 32 32 32 32 32 32 32 32 32 32 32 32 32 32 32 32 32 32 32 32 32 32 32 32 32 32 32 32 32 32 32 32 32 32 32 32 32 32 32 32 32 32 32 32 32 32 32 32 32 32 32 32 32 32 32 32 32 32 32 32 32 32 32 32 32 32 32 32 32 32 32 32 32 32 32 32 32 32 32 32 32 32 32 32 32 32 32 32 32 32 32 32 32 32 32 32 32 32 32 32 32 32 32 32 32 32 32 32 32 32 32 32 32 32 32 32 32 32 32 32 32 32 32 32 32 32 32 32 32 32 32 32 32 32 32 32 32 32 32 32 32 32 32 32 32 32 32 32 32 32 32 32 32 32 32 32 32 32 32 32 32 32 32 32 32 32 32 32 32 32 32 32 32 32 32 32 32 32 32 32 32 32 32 32 32 32 32 32 32 32 32 32 32 32 32 32 32 32 32 32 32 32 32 32 32 32 32 32 32 32 32 32 32 32 32 32 32 32 32 32 32 32 32 32 32 32 32 32 32 32 32 32 32 32 32 32 32 32 32 32 32 32 32 32 32 32 32 32 32 32 32 32 32 32 32 32 32 32 32 32 32 32 32 32 32 32 32 32 32 32 32 32 32 32 32 32 32 32 32 32 32 32 32 32 32 32 32 32 32 32 32 32 32 32 32 32 32 32 32 32 32 32 32 32 32 32 32 32 32 32 32 32 32 32 32 32 32 32 32 32 32 32 32 32 32 32 32 32 32 32 32 32 32 32 32 32 32 32 32 32 32 32 32 32 32 32 32 32 32 32 32 32 32 32 32 32 32 32 32 32 32 32 32 32 32 32 32 32 32 32 32 32 32 32 32 32 32 32 32 32 32 32 32 32 32 32 32 32 32 32 32 32 32 32 32 32 32 32 32 32 32 32 32 32 32 32 32 32 32 32 32 32 32 32 32 32 32 32 32 32 32 32 32 32 32 32 32 32 32 32 32 32 32 32 32 32 32 32 32 32 32 32 32 32 32 32 32 32 32 32 32 32 32 32 32 32 32 32 32 32 32 32 32 32 32 32 32 32 32 32 32 32 32 32 32 32 32 32 32 32 32 32 32 32 32 32 32 32 32 32 32 32 32 32 32 32 32 32 32 32 32 32 32 32 32 32 32 32 32 32 32 32 32 32 32 32 32 32 32 32 32 32 32 32 32 32 32 32 32 32 32 32 32 32 32 32 32 32 32 32 32 32 32 32 32 32 32 32 32 32 32 32 32 32 32 32 32 32 32 32 32 32 32 32 32 32 32 32 32 32 32 32 32 32 32 32 32 32 32 32 32 32 32 32 32 32 32 32 32 32 32 32 32 32 32 32 32 32 32 32 32 32 32 32 32 32 32 32 32 32 32 32 32 32 32 32 32 32 32 32 32 32 32 32 32 32 32 32 32 32 32 32 32 32 32 32 32 32 32 32 32 32 32 32 32 32 32 32 32 32 32 32 32 32 32 32 32 32 32 32 32 32 32 32 32 32 32 32 32 32 32 32 32 32 32 32 32 32 32 32 32 32 32 32 32 32 32 32 32 32 32 32 32 32 32 32 32 32 32 32 32 32 32 32 32 32 32 32 32 32 32 32 32 32 32 32 32 32 32 32 32 32 32 32 32 32 32 32 32 32 32 32 32 32 32 32 32 32 32 32 32 32 32 32 32 32 32 32 32 32 32 32 32 32 32 32 32 32 32 32 32 32 32 32 32 32 32 32 32 32 32 32 32 32 32 32 32 32 32 32 32 32 32 32 32 32 32 32 32 32 32 32 32 32 32 32 32 32 32 32 32 32 32 32 32 32 32 32 32 32 32 32 32 32 32 32 32 32 32 32 32 32 32 32 32 32 32 32 32 32 32 32 32 32 32 32 32 32 32 32 32 32 32 32 32 32 32 32 32 32 32 32 32 32 32 32 32 32 32 32 32 32 32 32 32 32 32 32 32 32 32 32 32 32 32 32 32 32 32 32 32 32 32 32 32 32 32 32 32 32 32 32 32 32 32 32 32 32 32 32 32 32 32 32 32 32 32 32 32 32 32 32 32 32 32 32 32 32 32 32 32 32 32 32 32 32 32 32 32 32 32 32 32 32 32 32 32 32 32 32 32 32 32 32 32 32 32 32 32 32 32 32 32 32 32 32 32 32 32 32 32 32 32 32 32 32 32 32 32 32 32 32 32 32 32 32 32 32 32 32 32 32 32 32 32 32 32 32 32 32 32 32 32 32 32 32 32 32 32 32 32 32 32 32 32 32 32 32 32 32 32 32 32 32 32 32 32 32 32 32 32 32 32 32 32 32 32 32 32 32 32 32 32 32 32 32 32 32 32 32 32 32 32 32 32 32 32 32 32 32 32 32 32 32 32 32 32 32 32 32 32 32 32 32 32 32 32 32 32 32 32 32 32 32 32 32 32 32 32 32 32 32 32 32 32 32 32 32 32 32 32 32 32 32 32 32 32 32 32 32 32 32 32 32 32 32 32 32 32 32 32 32 32 32 32 32 32 32 32 32 32 32 32 32 32 32 32 32 32 32 32 32 32 32 32 32 32 32 32 32 32 32 32 32 32 32 32 32 32 32 32 32 32 32 32 32 32 32 32 32 32 32 32 32 32 32 32 32 32 32 32 32 32 32 32 32 32 32 32 32 32 32 32 32 32 32 32 32 32 32 32 32 32 32 32 32 32 32 32 32 32 32 32 32 32 32 32 32 32 32 32 32 32 32 32 32 32 32 32 32 32 32 32 32 32 32 32 32 32 32 32 32 32 32 32 32 32 32 32 32 32 32 32 32 32 32 32 32 32 32 32 32 32 32 32 32 32 32 32 32 32 32 32 32 32 32 32 32 32 32 32 32 32 32 32 32 32 32 32 32 32 32 32 32 32 32 32 32 32 32 32 32 32 32 32 32 32 32 32 32 32 32 32 32 32 32 32 32 32 32 32 32 32 32 32 32 32 32 32 32 32 32 32 32 32 32 32 32 32 32 32 32 32 32 32 32 32 32 32 32 32 32 32 32 32 32 32 32 32 32 32 32 32 32 32 32 32 32 32 32 32 32 32 32 32 32 32 32 32 32 32 32 32 32 32 32 32 32 32 32 32 32 32 32 32 32 32 32 32 32 32 32 32 32 32 32 32 32 32 32 32 32 32 32 32 32 32 32 32 32 32 32 32 32 32 32 32 32 32 32 32 32 32 32 32 32 32 32 32 32 32 32 32 32 32 32 32 32 32 32 32 32 32 32 32 32 32 32 32 32 32 32 32 32 32 32 32 32 32 32 32 32 32 32 32 32 32 32 32 32 32 32 32 32 32 32 32 32 32 32 32 32 32 32 32 32 32 32 32 32 32 32 32 32 32 32 32 32 32 32 32 32 32 32 32 32 32 32 32 32 32 32 32 32 32 32 32 32 32 32 32 32 32 32 32 32 32 32 32 32 32 32 32 32 32 32 32 32 32 32 32 32 32 32 32 32 32 32 32 32 32 32 32 32 32 32 32 32 32 32 32 32 32 32 32 32 32 32 32 32 32 32 32 32 32 32 32 32 32 32 32 32 32 32 32 32 32 32 32 32 32 32 32 32 32 32 32 32 32 32 32 32 32 32 32 32 32 32 32 32 32 32 32 32 32 32 32 32 32 32 32 32 32 32 32 32 32 32 32 32 32 32 32 32 32 32 32 32 32 32 32 32 32 32 32 32 32 32 32 32 32 32 32 32 32 32 32 32 32 32 32 32 32 32 32 32 32 32 32 32 32 32 32 32 32 32 32 32 32 32 32 32 32 32 32 32 32 32 32 32 32 32 32 32 32 32 32 32 32 32 32 32 32 32 32 32 32 32 32 32 32 32 32 32 32 32 32 32 32 32 32 32 32 32 32 32 32 32 32 32 32 32 32 32 32 32 32 32 32 32 32 32 32 32 32 32 32 32 32 32 32 32 32 32 32 32 32 32 32 32 32 32 32 32 32 32 32 32 32 32 32 32 32 32 32 32 32 32 32 32 32 32 32 32 32 32 32 32 32 32 32 32 32 32 32 32 32 32 32 32 32 32 32 32 32 32 32 32 32 32 32 32 32 32 32 32 32 32 32 32 32 32 32 32 32 32 32 32 32 32 32 32 32 32 32 32 32 32 32 32 32 32 32 32 32 32 32 32 32 32 32 32 32 32 32 32 32 32 32 32 32 32 32 32 32 32 32 32 32 32 32 32 32 32 32 32 32 32 32 32 32 32 32 32 32 32 32 32 32 32 32 32 32 32 32 32 32 32 32 32 32 32 32 32 32 32 32 32 32 32 32 32 32 32 32 32 32 32 32 32 32 32 32 32 32 32 32 32 32 32 32 32 32 32 32 32 32 32 32 32 32 32 32 32 32 32 32 32 32 32 32 32 32 32 32 32 32 32 32 32 32 32 32 32 32 32 32 32 32 32 32 32 32 32 32 32 32 32 32 32 32 32 32 32 32 32 32 32 32 32 32 32 32 32 32 32 32 32 32 32 32 32 32 32 32 32 32 32 32 32 32 32 32 32 32 32 32 32 32 32 32 32 32 32 32 32 32 32 32 32 32 32 32 32 32 32 32 32 32 32 32 32 32 32 32 32 32 32 32 32 32 32 32 32 32 32 32 32 32 32 32 32 32 32 32 32 32 32 32 32 32 32 32 32 32 32 32 32 32 32 32 32 32 32 32 32 32 32 32 32 32 32 32 32 32 32 32 32 32 32 32 32 32 32 32 32 32 32 32 32 32 32 32 32 32 32 32 32 32 32 32 32 32 32 32 32 32 32 32 32 32 32 32 32 32 32 32 32 32 32 32 32 32 32 32 32 32 32 32 32 32 32 32 32 32 32 32 32 32 32 32 32 32 32 32 32 32 32 32 32 32 32 32 32 32 32 32 32 32 32 32 32 32 32 32 32 32 32 32 32 32 32 32 32 32 32 32 32 32 32 32 32 32 32 32 32 32 32 32 32 32 32 32 32 32 32 32 32 32 32 32 32 32 32 32 32 32 32 32 32 32 32 32 32 32 32 32 32 32 32 32 32 32 32 32 32 32 32 32 32 32 32 32 32 32 32 32 32 32 32 32 32 32 32 32 32 32 32 32 32 32 32 32 32 32 32 32 32 32 32 32 32 32 32 32 32 32 32 32 32 32 32 32 32 32 32 32 32 32 32 32 32 32 32 32 32 32 32 32 32 32 32 32 32 32 32 32 32 32 32 32 32 32 32 32 32 32 32 32 32 32 32 32 32 32 32 32 32 32 32 32 32 32 32 32 32 32 32 32 32 32 32 32 32 32 32 32 32 32 32 32 32 32 32 32 32 32 32 32 32 32 32 32 32 32 32 32 32 32 32 32 32 32 32 32 32 32 32 32 32 32 32 32 32 32 32 32 32 32 32 32 32 32 32 32 32 32 32 32 32 32 32 32 32 32 32 32 32 32 32 32 32 32 32 32 32 32 32 32 32 32 32 32 32 32 32 32 32 32 32 32 32 32 32 32 32 32 32 32 32 32 32 32 32 32 32 32 32 32 32 32 32 32 32 32 32 32 32 32 32 32 32 32 32 32 32 32 32 32 32 32 32 32 32 32 32 32 32 32 32 32 32 32 32 32 32 32 32 32 32 32 32 32 32 32 32 32 32 32 32 32 32 32 32 32 32 32 32 32 32 32 32 32 32 32 32 32 32 32 32 32 32 32 32 32 32 32 32 32 32 32 32 32 32 32 32 32 32 32 32 32 32 32 32 32 32 32 32 32 32 32 32 32 32 32 32 32 32 32 32 32 32 32 32 32 32 32 32 32 32 32 32 32 32 32 32 32 32 32 32 32 32 32 32 32 32 32 32 32 32 32 32 32 32 32 32 32 32 32 32 32 32 32 32 32 32 32 32 32 32 32 32 32 32 32 32 32 32 32 32 32 32 32 32 32 32 32 32 32 32 32 32 32 32 32 32 32 32 32 32 32 32 32 32 32 32 32 32 32 32 32 32 32 32 32 32 32 32 32 32 32 32 32 32 32 32 32 32 32 32 32 32 32 32 32 32 32 32 32 32 32 32 32 32 32 32 32 32 32 32 32 32 32 32 32 32 32 32 32 32 32 32 32 32 32 32 32 32 32 32 32 32 32 32 32 32 32 32 32 32 32 32 32 32 32 32 32 32 32 32 32 32 32 32 32 32 32 32 32 32 32 32 32 32 32 32 32 32 32 32 32 32 32 32 32 32 32 32 32 32 32 32 32 32 32 32 32 32 32 32 32 32 32 32 32 32 32 32 32 32 32 32 32 32 32 32 32 32 32 32 32 32 32 32 32 32 32 32 32 32 32 32 32 32 32 32 32 32 32 32 32 32 32 32 32 32 32 32 32 32 32 32 32 32 32 32 32 32 32 32 32 32 32 32 32 32 32 32 32 32 32 32 32 32 32 32 32 32 32 32 32 32 32 32 32 32 32 32 32 32 32 32 32 32 32 32 32 32 32 32 32 32 32 32 32 32 32 32 32 32 32 32 32 32 32 32 32 32 32 32 32 32 32 32 32 32 32 32 32 32 32 32 32 32 32 32 32 32 32 32 32 32 32 32 32 32 32 32 32 32 32 32 32 32 32 32 32 32 32 32 32 32 32 32 32 32 32 32 32 32 32 32 32 32 32 32 32 32 32 32 32 32 32 32 32 32 32 32 32 32 32 32 32 32 32 32 32 32 32 32 32 32 32 32 32 32 32 32 32 32 32 32 32 32 32 32 32 32 32 32 32 32 32 32 32 32 32 32 32 32 32 32 32 32 32 32 32 32 32 32 32
