# vtk DataFile Version 2.0
Exported by getfem++
ASCII
DATASET UNSTRUCTURED_GRID
POINTS 2712 float
 -58.3108 48.0068 113.5
 -64.724 34.5851 113.5
 -64.8208 48.0068 101.325
 -55.0656 32.5679 97.9711
 40.3089 -41.9932 20.2563
 51.6892 -30.9687 28.6461
 51.6892 -28.6818 10.7435
 31.334 -27.3338 18.2045
 -32.3567 48.0068 38.104
 -18.3108 48.0068 36.8007
 -21.6 48.0068 48.8834
 -17.8728 35.5807 46.8158
 -19.7769 -23.8602 26.6
 -13.7422 -18.2905 26.6
 -20.8338 -15.2213 26.6
 -21.1188 -15.1833 37.1705
 -88.3108 -28.2043 26.6688
 -88.3108 -14.4845 34.6547
 -88.3108 -28.2635 42.4642
 -70.6844 -24.8829 31.6256
 0.578619 -20.3967 85.773
 -1.15906 -27.3047 75.2514
 10.016 -23.8399 70.2957
 10.0849 -29.703 82.641
 51.6892 -16.6284 -80.8607
 38.5601 -13.3715 -86.7418
 35.0978 -23.3093 -76.4065
 37.4494 -10.0968 -67.4167
 -31.9295 11.1531 41.6749
 -29.894 0.404994 48.4237
 -29.9203 1.4186 37.2626
 -24.3687 7.78462 41.6749
 16.6892 37.9327 -25.8
 16.6892 33.0068 -15.8
 33.3805 31.3877 -24.2309
 26.9035 36.1237 -11.2671
 3.50517 21.5191 -15.8
 -1.32903 28.3585 -15.8
 11.6892 28.7806 -25.8
 -3.11593 16.6363 -26.6603
 -22.4186 -10.5902 -65.2417
 -6.71751 3.85356 -58.8557
 -13.3322 -9.24489 -51.7958
 -4.69156 -10.8723 -65.4992
 -49.8622 36.1462 113.5
 -11.8613 7.6749 -15.8
 -7.74086 3.75422 -26.6001
 -11.3683 3.64069 -15.8
 -15.4295 4.3937 -22.0315
 -17.7811 -12.7835 -35.8
 -19.3171 -0.729379 -24.489
 -24.8676 0.760747 -35.8
 -34.0125 -5.42372 -26.2801
 -6.26016 -23.5632 -54.98
 -6.95464 -21.0331 -78.0183
 -15.9718 -28.4864 -67.2073
 3.50517 21.5191 25.8
 1.61836 13.1563 25.8
 -3.9417 20.1607 25.8
 -4.9364 23.9897 15.8
 1.61836 13.1563 5.8
 3.50517 21.5191 5.8
 -3.9417 20.1607 5.8
 -30.6668 -8.5038 -15
 -23.7141 -4.87705 -5
 -27.7673 -0.698839 -8.70047
 -30.8019 -12.2912 -4.54216
 -30.9904 48.0068 103.632
 -38.0649 48.0068 98.423
 -28.8373 48.0068 97.658
 -26.8855 38.6983 101.736
 -43.7573 -41.9932 89.9789
 -37.4087 -41.9932 77.6175
 -50.0189 -41.9932 77.1387
 -49.2847 -27.1549 85.5553
 -88.3108 -14.2266 -28.5258
 -88.3108 -0.324114 -36.2983
 -88.3108 -0.569413 -20.5016
 -70.2723 -7.04934 -31.6954
 22.1415 -14.7423 82.3778
 31.914 -3.33391 79.6057
 21.4135 1.47839 69.6097
 17.4599 -1.17571 83.1716
 40.3191 48.0068 -29.3121
 51.6892 48.0068 -28.7
 51.6892 34.2575 -20.8359
 51.6892 34.2306 -36.6665
 -31.7256 6.43997 26.6
 -27.7999 1.69576 26.6
 -26.4304 7.18497 26.6
 -24.2873 7.17811 32.5971
 26.3085 7.08264 -123.5
 33.5146 -1.36126 -104.258
 37.048 -4.10256 -123.5
 33.3735 13.2309 -109.437
 -88.3108 -28.2147 -36.5519
 -88.3108 -28.0613 -20.7361
 -88.3108 -41.9932 -28.7
 -74.7852 -41.9932 -33.5737
 -33.5439 -18.9305 -123.5
 -45.9815 -16.3192 -123.5
 -47.6492 -28.4105 -123.5
 -41.4176 -22.0851 -102.807
 -53.3108 33.0068 -15
 -53.3108 37.9327 -5
 -59.9621 48.0068 -9.97672
 -68.6449 33.3728 -15.4575
 51.6892 -18.8271 23.6551
 -39.3999 26.0069 -36.6
 -53.3108 18.0068 -36.6
 -47.867 32.8419 -52.1625
 -41.9494 17.6723 -51.2105
 16.6892 18.0068 -36.6
 16.6892 3.00676 -36.6
 35.6943 9.66844 -44.6737
 31.8347 17.9193 -31.9866
 -53.3108 -26.9932 5.8
 -53.3108 -31.9191 15.8
 -70.0056 -25.373 14.238
 -63.8149 -29.9857 1.09614
 38.8688 -41.9932 74.4326
 51.6892 -41.9932 81.9
 51.6892 -33.1274 74
 51.6892 -29.3482 88.6195
 -27.1943 2.05202 -15.8
 -23.9025 4.93901 -15.8
 -22.8773 1.21909 -15.8
 -22.3313 6.07059 -20.4856
 -25.6206 12.8395 35.2411
 -74.8182 48.0068 -19.5268
 -88.3108 48.0068 -12.9
 -88.3108 36.9289 -22.8465
 -88.3108 34.6768 -4.94371
 -11.9182 -17.7035 -36.6
 -25.591 -22.1632 -36.6
 -26.5195 -10.7711 -36.6
 1.54163 -3.29789 25.8
 11.6892 -8.65991 25.8
 0.15496 -14.3856 25.8
 11.6892 -1.57658 15.8
 1.54163 -3.29789 5.8
 11.6892 -8.65991 5.8
 0.15496 -14.3856 5.8
 -55.7705 -26.5306 -109.377
 -50.5785 -9.25839 -108.525
 -60.5137 -13.8021 -95.8055
 -40.4098 -9.88938 -90.4097
 -54.3006 0.871075 -92.547
 16.0154 17.6353 113.5
 3.7257 24.9289 113.5
 15.6934 33.4942 113.5
 12.8177 20.6711 96.2826
 -1.43724 -29.5108 95.1419
 14.7116 -23.0072 96.3052
 1.01091 -16.0597 99.4195
 -31.4175 20.7349 70.4709
 -33.2739 33.4485 78.3404
 -43.7495 19.0552 76.8314
 -32.4261 20.3292 82.9164
 -29.8443 23.7556 -15.8
 -22.6912 23.7476 -15.8
 -26.8959 17.6761 -15.8
 -21.9305 15.541 -23.8359
 -23.9025 4.93901 25.8
 -22.8773 1.21909 25.8
 -27.1943 2.05202 25.8
 -22.3835 3.35641 20.2557
 -67.0927 48.0068 23.4696
 -74.1925 48.0068 31.4319
 -77.0533 48.0068 20.5911
 -70.234 33.2919 21.599
 -26.1996 7.97635 5
 -24.3612 10.0694 -1.50779
 -23.9088 10.7026 5
 -22.0532 6.75648 1.4247
 -65.0728 -41.9932 -75.0742
 -73.5394 -41.9932 -84.5054
 -75.7988 -41.9932 -68.2588
 -69.1253 -22.8151 -79.9209
 -61.313 14.6615 -97.5641
 -41.5819 3.47009 -102.345
 -56.0332 5.56119 -109.371
 51.6892 -5.94565 -44.8557
 51.6892 -15.9463 -37.4363
 51.6892 -6.20784 -29.088
 35.5971 -11.7719 -41.9648
 11.6892 -1.57277 -25.8
 0.15496 -14.3856 -15.8
 11.6892 -8.65991 -15.8
 1.54163 -3.29789 -15.8
 -50.6724 -29.6108 113.5
 -64.4588 -27.6041 113.5
 -53.3253 -18.1295 113.5
 -48.682 -21.2539 99.4585
 -53.3108 25.5068 -25.8
 -53.3108 33.0068 -35.8
 -53.3108 18.0068 -35.8
 -71.49 30.3071 -31.0882
 -57.2348 48.0068 6.28012
 -58.6353 48.0068 -0.661211
 -53.3108 33.0068 5
 -66.6602 34.4754 9.54677
 -88.3108 -0.662087 -4.70544
 -88.3108 -0.642348 11.0873
 -88.3108 -14.3723 3.07563
 -70.1578 -9.54286 6.11858
 -58.0827 -41.9932 88.6453
 -63.1625 -41.9932 76.3067
 -47.986 31.9102 45.525
 -63.6854 25.5039 51.6158
 -56.61 37.0315 38.472
 -57.0445 23.0656 39.5208
 32.965 -41.9932 38.3609
 41.7787 -41.9932 40.9958
 37.53 -41.9932 31.3902
 34.8565 -23.0047 35.3702
 -19.0481 -41.9932 37.0874
 -6.61379 -41.9932 38.5522
 -16.5975 -32.4531 26.6
 -17.8371 -27.666 38.9019
 -23.9025 4.93901 5
 -20.8048 4.87943 5
 -22.8773 1.21909 5
 -48.3108 -17.7671 -25.8
 -48.3108 -1.57658 -25.8
 -38.228 -7.12984 -15.8
 -88.3108 27.0978 -36.0798
 -88.3108 13.1691 -28.2914
 -88.3108 12.6414 -44.0938
 -70.9602 10.5068 -36.2
 -88.3108 -19.0651 -112.297
 -88.3108 -31.2833 -112.835
 -76.6662 -19.2672 -123.5
 -71.6198 -23.4318 -106.525
 -14.8333 2.84804 26.6
 -19.3015 3.66609 31.4073
 -14.6401 0.329226 32.9197
 -16.5623 6.14171 29.419
 -27.9605 -20.4253 26.6
 -27.6304 -31.0618 26.6
 -29.6771 -22.5861 40.7979
 14.5194 9.00568 56.5095
 22.4299 -6.97172 57.4024
 8.57488 1.50754 65.2096
 -18.2843 -30.7828 -36.6
 -31.8776 -31.3694 -36.6
 -25.7706 -25.8243 -54.9339
 -28.0101 11.7654 -15
 -29.3623 15.0806 -4.7998
 -24.3612 10.0694 -8.49221
 -21.9281 15.5418 -9.41906
 -11.8613 7.6749 25.8
 -14.7069 9.74229 25.8
 -11.0624 11.7531 25.8
 -11.4132 7.09969 18.4066
 -48.3108 -29.3199 -9.12536
 -36.892 -25.6576 -15
 -48.3108 -17.7671 -5
 -48.3108 -29.1871 -1.42857
 -4.79901 48.0068 103.182
 -10.0398 48.0068 96.3863
 -1.45803 48.0068 95.4156
 -0.613753 36.0736 100.381
 -88.3108 18.0278 90.991
 -88.3108 1.26541 88.6027
 -72.1913 9.42409 82.7495
 -72.1265 9.20662 98.7963
 -53.3108 25.5068 -5
 -70.8014 30.5672 -0.295713
 -26.5278 17.9036 26.6
 -19.7342 19.5422 26.6
 -26.4648 23.4116 26.6
 -28.8622 20.6847 34.327
 -73.6747 -41.9932 42.3302
 -65.765 -41.9932 31.967
 -76.4107 -41.9932 27.6417
 51.6892 34.162 10.7686
 51.6892 20.2561 18.5349
 51.6892 33.9606 26.5529
 33.5459 30.7327 15.5928
 29.1892 48.0068 100.51
 29.9583 35.5916 113.5
 21.6892 48.0068 113.5
 20.4239 33.9944 97.3847
 -44.6419 3.14897 -79.6612
 -55.1184 -10.4812 -79.8233
 -66.9249 2.70098 -76.9758
 -34.1751 -41.9932 -92.9367
 -34.3106 -41.9932 -109.121
 -28.4935 -27.5263 -95.6744
 -3.32283 -25.8115 -15.8
 -1.72507 -14.3126 -35.8
 0.976767 -26.5085 -35.8
 -53.3108 -11.9932 5.8
 -53.3108 3.00676 5.8
 -53.3108 3.00676 5
 -53.3108 -11.9932 5
 -88.3108 38.8198 10.8
 -88.3108 34.6405 26.6545
 -88.3108 26.3443 11.2471
 -53.3108 -11.9932 -35.8
 -53.3108 -19.4932 -25.8
 -53.3108 -4.49324 -25.8
 -34.721 0.368405 26.6
 -40.0835 4.85141 26.6
 -41.7538 -5.30963 26.6
 -36.1137 7.46958 34.4943
 -48.3108 -29.3199 11.6746
 -48.3108 -17.7671 15.8
 -48.3108 -29.1871 19.3714
 -36.892 -25.6576 5.8
 -37.5816 -4.39521 113.5
 -28.3108 -11.9932 110.5
 -40.9894 -18.0663 113.5
 -44.5269 -7.08298 96.2328
 -73.6765 -4.05638 -123.5
 -62.9444 7.20189 -123.5
 -76.0061 10.8443 -123.5
 -70.5473 -0.354242 -104.994
 -3.32283 -25.8115 5
 -16.6187 -24.2527 5
 -3.32283 -25.8115 -15
 -10.8108 -36.9932 -5
 37.7223 48.0068 -52.0207
 51.6892 48.0068 -60.3
 51.6892 34.2796 -52.4635
 38.9586 48.0068 -66.55
 51.6892 -6.11139 -75.6042
 32.8186 2.1769 -76.8416
 3.55791 16.3674 53.2058
 2.30208 3.5193 54.0806
 9.79564 6.69721 41.8262
 -62.5754 -21.9095 67.1468
 -59.5143 -14.2936 86.0463
 -72.5231 -11.9564 75.9793
 -70.5909 -27.7852 80.3664
 -38.4368 38.1329 -15.8
 -48.3108 40.2006 -29.3714
 -38.2367 48.0068 -25.8
 -37.5984 37.522 -35.8
 -75.3158 48.0068 -4.21968
 -77.4447 48.0068 9.54601
 -88.3108 48.0068 2.9
 21.0193 -41.9932 5.4
 16.6892 -41.9932 5.8
 22.4509 -41.9932 11.1148
 24.2073 -32.9829 3.88915
 -26.1996 7.97635 5.8
 -28.0101 11.7654 5.8
 -31.2276 6.09985 5.8
 -25.0278 6.4753 12.4427
 -88.3108 -14.3987 18.8697
 15.4396 -0.355835 -71.0201
 14.439 1.70443 -89.7065
 23.5147 -13.3715 -86.7418
 7.25222 -12.6522 -84.1998
 -88.3108 24.6855 80.8549
 -88.3108 22.3239 71.0625
 -88.3108 34.8056 72.2635
 -72.9947 32.2793 80.8756
 11.6892 -17.7665 -25.8
 -28.8541 33.9888 92.7344
 -40.8461 34.401 99.8746
 -32.0697 -9.14471 -108.231
 -53.7569 5.26282 -65.6054
 51.6892 48.0068 34.5
 38.7312 48.0068 32.9922
 51.6892 34.1228 42.3789
 -0.597524 1.24331 -80.108
 -8.61206 -9.45731 -89.1102
 -88.3108 -28.1639 10.8511
 -76.7436 -41.9932 2.78394
 -88.3108 -41.9932 2.9
 -88.3108 -28.119 -4.92126
 -11.8214 23.898 -36.6
 -13.4206 31.6008 -54.5074
 -4.32983 36.5374 -36.6
 -4.50403 18.0923 -50.4326
 -33.6467 -2.43661 -5
 -36.9107 7.65808 -6.10848
 -26.6369 5.01152 -5
 -44.052 -13.3042 26.6
 -53.3108 -11.9932 26.6
 -44.7951 -21.0537 26.6
 -45.9934 -17.0284 40.9175
 -41.0364 -5.25846 -123.5
 16.6892 18.0068 26.6
 16.6892 3.00676 26.6
 21.5616 14.6541 39.6895
 -88.3108 -11.9932 -123.5
 -88.3108 -4.85621 -111.489
 -23.7173 13.9942 -15
 -19.1314 11.602 -10.7679
[...]
POINT_DATA 2712


SCALARS Electric_potential float 1
LOOKUP_TABLE default
 244.944 244.541 244.298 244.656 240.834 241.008 240.725 240.719 239.122 238.706 239.828 239.162 238.491 237.722 237.104 237.926 240.932 241.05 241.378 240.902 244.597 243.439 242.78 243.945 240.533 240.532 240.534 240.534 236.941 238.5 235.15 235.46 240.512 240.498 240.516 240.498 47.4011 47.2769 46.971 47.9847 240.529 240.529 240.53 240.53 245.744 52.7046 48.6763 51.3709 51.8435 47.0373 49.2952 48.1831 47.4429 240.532 240.53 240.53 144.467 145.029 146.024 144.06 143.189 143.259 142.433 75.5378 77.5907 76.9276 75.9451 247.65 246.05 246.82 247.963 244.874 243.759 243.432 244.11 240.54 240.526 240.528 240.527 243.529 243.129 242.446 243.702 240.519 240.521 240.524 240.525 231.005 229.216 224.251 227.25 240.53 240.53 240.53 240.53 240.541 240.558 240.551 240.545 240.528 240.528 240.528 240.528 240.475 240.444 240.471 240.49 240.861 240.521 240.514 240.52 240.522 240.525 240.531 240.53 240.524 240.521 240.547 240.659 240.587 242.896 243.191 242.817 243.461 49.8165 53.3188 51.6417 52.6602 231.498 240.497 240.502 240.507 240.507 240.531 240.53 240.528 144.367 143.42 143.492 143.591 142.854 143.05 142.885 240.528 240.527 240.527 240.528 240.527 245.429 247.327 245.521 244.905 245.958 244.801 246.378 242.469 243.615 243.329 244.298 47.9854 48.3806 49.1562 49.6127 161.382 154.228 151.032 152.011 240.481 240.737 240.589 240.515 85.7558 82.4913 91.7084 90.5537 240.529 240.529 240.531 240.528 240.526 240.527 240.527 240.539 240.548 240.547 240.54 47.2495 46.7504 46.777 47.6346 245.68 244.699 245.467 245.212 240.498 240.511 240.513 240.507 240.413 240.447 240.398 240.45 240.547 240.596 240.607 240.538 244.008 243.123 240.198 241.27 240.388 240.291 241.187 241.331 241.041 241.038 239.97 240.284 239.264 239.591 88.5501 104.698 85.2305 46.2785 47.143 47.0399 240.513 240.518 240.52 240.518 240.527 240.528 240.527 240.528 219.103 222.23 229.871 215.247 238.348 239.304 239.657 241.133 241.608 242.013 240.531 240.531 240.53 75.7187 77.9831 77.01 76.6574 159.999 173.805 155.893 148.509 74.384 74.5062 74.9955 74.4542 247.293 246.585 245.897 246.527 243.495 243.417 243.235 243.955 240.436 240.478 230.278 228.798 234.155 235.015 241.348 240.917 240.931 240.57 240.651 240.76 240.486 244.2 244.429 244.906 244.523 240.526 240.527 240.526 240.529 240.529 240.529 46.1138 46.6049 45.9414 240.415 240.346 240.357 240.43 240.559 240.737 240.56 240.526 240.527 240.515 234.704 236.864 237.947 236.285 142.655 143.009 142.749 142.61 248.547 250 247.238 245.269 240.527 240.527 240.526 240.527 74.681 75.004 74.5955 74.5259 240.525 240.527 240.527 240.527 240.533 240.531 240.251 240.207 239.318 242.469 243.784 242.932 243.219 46.7783 46.6862 46.6752 46.7268 240.493 240.516 240.515 240.621 240.619 240.634 240.609 135.722 140.091 141.237 141.375 240.756 240.531 240.53 240.532 240.531 243.037 242.516 242.616 243.086 46.4154 245.818 245.897 240.528 240.525 240.929 240.829 241.189 240.529 240.529 240.696 240.645 240.65 240.603 240.526 240.526 240.525 240.527 76.9116 77.1529 78.7208 239.041 240.083 239.655 240.171 240.528 239.752 239.776 240.331 240.527 240.527 74.3072 73.7847 240.527 240.513 240.519 240.459 235.778 231.354 244.394 243.311 250 246.357 247.546 245.197 66.8555 66.8376 68.9771 240.868 241.059 240.749 240.805 240.799 240.537 240.53 240.528 240.515 74.5708 240.53 240.533 240.522 240.524 240.522 240.523 240.524 240.525 240.525 240.525 244.196 243.911 243.895 243.984 240.53 240.53 240.53 240.529 240.499 240.515 240.502 240.514 240.52 240.525 85.9708 82.2539 244.775 244.852 244.209 243.915 243.84 243.836 240.53 240.529 240.53 202.997 222.455 207.15 75.661 75.8166 75.6054 77.5315 77.3123 79.0953 76.7413 240.521 148.442 145.815 146.627 145.074 240.525 240.525 240.526 240.527 58.7951 59.3845 56.2189 240.53 240.529 240.529 240.529 240.529 240.529 240.529 240.529 240.528 240.794 240.769 240.525 240.526 240.528 240.527 240.546 240.478 240.557 240.616 241.734 241.413 242.114 229.358 227.182 232.04 234.507 240.528 240.527 240.516 240.519 240.513 240.517 243.494 243.081 243.433 243.901 82.6411 79.8743 81.6095 71.8467 216.667 229.008 239.1 240.293 239.847 48.208 48.8335 142.62 141.384 142.218 76.1879 75.3549 73.9378 240.528 240.529 145.204 144.363 142.878 238.906 238.509 239.9 239.572 137.891 132.47 140.329 140.756 237.822 239.736 239.636 239.471 75.7966 240.537 240.534 240.537 75.7633 243.193 242.945 243.906 243.585 89.6075 101 85.1104 84.0595 72.0504 74.1453 75.9167 240.511 225.307 73.9255 67.1736 144.474 144.067 240.551 240.56 240.607 240.547 241.108 241.041 240.684 241.277 242.262 241.566 242.161 241.748 240.525 240.526 240.526 80.0706 86.1115 77.9434 80.5985 81.354 77.6647 80.0971 75.1846 75.4595 240.53 240.531 240.53 143.919 243.912 240.512 237.531 237.429 237.181 78.8603 240.528 47.3775 240.531 240.53 240.528 240.528 240.529 240.477 240.473 240.492 240.496 244.312 142.898 142.722 142.398 143.887 143.598 145.25 143.637 241.504 240.115 241.671 241.867 241.104 244.51 245.158 243.948 240.327 240.112 240.482 244.03 243.611 243.555 240.528 240.527 240.471 243.118 242.967 244.227 242.6 140.797 142.732 144.976 143.554 245.157 241.703 241.94 240.522 240.716 242.199 241.733 242.097 241.817 244.062 244.255 243.605 243.96 240.526 240.529 240.526 240.534 240.535 240.536 240.54 220.827 229.544 230.69 46.2389 46.0882 45.9157 241.514 234.289 238.281 239.454 241.177 222.109 201.517 220.382 154.521 174.781 240.522 240.517 240.519 240.522 154.905 149.058 148.742 146.431 240.529 240.531 240.529 241.901 242.255 241.516 241.559 250 250 250 246.799 240.532 240.531 240.531 149.381 147.16 121.615 117.787 110.141 132.583 75.7229 75.8324 75.746 76.4033 76.4242 76.0167 76.4694 76.5875 76.1748 47.7944 49.5618 49.9764 240.528 240.528 240.971 240.05 240.043 241.769 242.476 241.992 241.322 240.776 240.675 240.768 242.832 243.089 244.009 245.013 244.143 240.54 240.54 243.125 242.943 242.191 241.661 52.0939 53.3679 240.529 240.529 240.529 199.406 177.506 193.83 241.404 241.603 241.466 241.09 246.942 247.16 240.531 74.7559 75.8107 240.532 240.534 244.072 243.786 239.866 240.969 241.151 142.66 142.891 143.125 139.401 136.4 143.429 142.667 74.377 242.81 240.525 240.525 240.525 240.526 48.2293 49.3816 49.0153 243.079 242.632 242.678 240.532 240.532 240.531 250 250 240.529 240.529 247.025 86.8814 103.677 151.02 240.527 240.527 240.528 243.209 242.295 242.761 243.097 242.426 240.525 240.526 240.526 240.492 240.454 240.503 240.526 240.527 240.526 240.526 45.9012 45.9089 45.8378 45.8492 240.951 240.526 240.525 250 247.367 247.871 246.623 243.919 243.156 137.172 139.542 141.283 240.191 239.791 239.892 230.479 234.377 236.692 233.755 234.583 235.792 240.528 242.308 241.222 241.963 89.7425 104.517 240.555 240.502 240.53 240.528 244.16 244.724 244.142 240.531 240.53 240.53 240.526 240.525 241.323 237.3 240.531 240.531 240.532 240.531 240.534 240.516 243.917 245.428 246.889 247.202 240.527 74.5962 75.3337 240.534 81.6426 78.2642 121.291 131.775 228.162 143.425 143.383 143.687 143.327 75.6663 75.6857 75.7925 75.6503 247.288 246.17 247.637 240.529 240.528 240.529 240.528 45.9133 45.9778 46.6574 46.5673 240.533 240.532 240.527 250 247.817 240.524 240.529 240.53 240.53 46.6869 46.7742 46.7227 243.193 242.453 243.386 243.522 245.286 247.278 240.47 240.47 155.735 147.57 143.866 240.527 240.526 241.523 242.423 240.76 241.201 240.906 241.976 241.694 241.095 86.3221 240.522 240.524 240.525 243.062 243.782 245.578 243.811 48.9996 48.1101 50.5041 240.075 240.775 240.383 240.503 45.8871 239.802 239.823 240.216 240.444 244.984 244.758 240.523 240.525 244.944 77.7528 77.3617 240.561 240.555 240.548 240.548 240.534 240.526 240.526 240.526 246.965 245.205 246.144 240.531 240.531 240.531 141.759 142.411 240.579 240.584 240.565 240.558 240.529 240.53 240.53 240.691 240.53 47.0173 240.475 240.47 240.532 131.151 240.531 240.532 46.6879 240.719 241.03 241.335 241.076 244.445 244.321 243.27 242.18 240.641 240.52 240.52 240.53 240.53 240.338 81.2627 77.1161 75.3963 245.45 143.97 143.309 143.471 143.297 244.235 47.7037 48.5438 47.3622 240.518 240.494 240.524 47.5973 47.4525 220.581 222.476 132.377 139.379 240.533 240.534 240.532 240.405 240.383 240.5 78.3723 242.042 240.526 75.3663 75.0376 75.951 240.528 240.529 240.529 240.528 240.527 240.521 238.52 236.661 235.621 144.574 240.976 241.122 240.937 240.526 244.598 240.529 240.53 246.367 250 240.528 235.497 240.519 240.53 66.6822 74.2611 147.833 146.262 250 248.351 240.458 241.085 241.674 103.193 90.4609 100.73 84.3901 66.0088 67.4773 71.8222 75.4154 248.373 250 246.701 237.949 238.288 142.936 142.895 143.18 143.798 143.441 143.86 142.893 241.211 241.904 241.748 78.7408 245.798 245.293 47.1455 47.2918 240.83 239.576 234.911 240.531 240.529 49.6525 48.8865 142.692 244.681 244.464 245.458 240.528 76.9408 79.443 76.7544 236.508 236.545 77.6197 242.151 76.1851 75.9561 76.6788 76.3807 76.6343 242.629 244.174 244.199 243.852 75.9821 79.6031 244.609 240.524 240.524 75.1216 144.388 74.7405 241.873 241.19 241.752 241.173 241.225 240.922 240.767 240.528 240.533 240.533 240.525 240.526 240.525 243.805 240.559 240.561 244.24 241.962 242.097 242.673 74.4606 237.191 235.95 49.9298 84.8912 74.1558 240.529 240.415 240.471 240.391 240.517 240.528 75.8476 77.0844 243.711 240.524 159.516 142.969 240.534 47.0988 47.1503 46.9272 46.7987 242.678 242.979 242.856 240.518 240.519 234.66 231.965 240.464 241.531 241.102 240.644 240.511 240.633 240.527 240.473 240.49 240.495 240.587 240.588 240.573 240.564 240.55 239.643 238.609 238.711 238.737 240.58 240.592 240.573 240.593 240.528 240.527 240.528 240.528 238.974 238.041 240.687 240.604 241.985 81.9865 74.9519 241.611 240.532 240.532 240.528 244.082 240.567 240.555 145.228 142.513 240.518 243.825 242.799 243.212 240.524 240.524 240.523 148.681 147.362 240.529 240.529 47.6294 240.528 240.527 240.528 240.544 240.538 240.544 240.538 189.15 139.948 243.808 243.549 74.4901 74.5322 142.686 142.685 240.542 240.472 240.317 240.644 240.506 243.939 245.36 244.417 242.152 143.045 143.679 240.538 240.599 236.999 240.526 240.714 143.564 240.567 240.554 240.526 246.029 246.687 245.871 243.455 82.8191 77.2873 77.1597 76.262 243.748 244.018 244.107 240.527 240.527 240.526 240.527 240.527 243.351 76.4614 76.3067 245.595 241.974 220.283 226.073 244.987 246.942 245.365 243.983 244.188 243.985 243.797 243.357 242.291 240.507 240.5 243.87 240.53 71.8664 91.8366 75.7096 75.9053 75.3401 75.7806 240.529 240.529 117.502 99.7264 240.527 240.526 240.527 240.531 75.3055 74.7545 240.529 240.531 240.531 243.504 243.71 243.395 243.936 240.58 240.593 240.525 150.724 147.852 143.097 144.337 76.2651 76.0112 77.8725 240.074 238.207 143.756 237.316 238.098 72.8908 239.578 239.433 80.1682 59.8468 60.3674 244.711 240.795 240.08 240.412 132.182 240.532 240.529 142.732 142.656 142.976 142.993 243.073 240.529 240.532 240.541 240.213 134.548 130.945 141.115 49.5333 49.0966 48.0799 76.3367 75.7384 76.2704 75.6866 75.3931 243.603 240.531 244.084 46.6345 243.968 240.257 239.695 240.53 240.53 240.529 47.2886 47.6248 240.537 244.559 244.699 242.046 240.563 240.599 242.96 242.739 240.645 240.5 240.468 250 240.977 241.217 46.7185 175.884 240.51 240.504 240.575 240.618 240.646 242.418 239.999 240.234 241.528 244.136 243.009 242.697 240.639 240.414 240.092 239.843 243.782 240.528 136.676 136.977 240.529 240.506 240.435 240.336 217.039 144.876 147.78 141.386 143.2 240.532 240.532 242.394 240.529 250 248.495 242.153 240.531 236.699 155.719 241.022 242.354 250 77.7192 240.521 240.521 240.519 237.11 239.009 240.529 240.482 237.318 234.464 236.432 236.537 242.389 75.7621 77.5082 241.565 143.613 240.659 246.254 242.604 241.744 240.513 240.526 240.748 240.696 242.754 240.516 243.29 243.221 240.906 241.695 240.529 240.506 240.528 240.528 240.63 239.876 143.019 204.488 143.506 143.895 240.545 240.929 240.538 240.536 240.534 240.532 240.528 240.698 240.531 240.534 161.172 156.07 151.187 240.53 244.913 240.707 60.1846 59.5484 52.9182 142.732 140.885 148.65 145.621 239.726 240.522 234.604 46.7895 244.792 243.723 243.458 244.809 243.914 240.721 241.124 240.531 240.517 240.533 46.0122 240.536 241.752 240.259 240.343 240.538 240.51 240.611 241.208 240.616 240.612 247.676 47.2737 47.1533 75.7407 240.248 247.285 54.1588 51.6945 52.0068 80.4688 80.8269 75.9075 75.6419 240.69 240.372 240.529 247.127 240.535 240.538 240.533 47.9894 76.437 75.9147 76.6169 75.8822 76.1023 240.527 240.539 46.9301 46.7749 47.2026 241.647 241.927 241.78 176.636 188.392 233.507 238.875 243.811 119.567 240.529 250 246.286 144.938 136.491 246.29 143.455 143.931 240.473 229.466 240.527 240.558 244.007 240.522 240.524 240.538 240.533 240.533 46.8501 240.532 156.771 162.358 240.528 240.522 244.639 241.728 240.527 240.527 240.527 75.9703 244.15 242.336 240.529 139.151 240.546 143.223 143.433 143.585 240.52 75.1343 79.9964 238.355 246.036 239.649 46.1562 237.703 240.527 240.599 240.602 79.4358 47.7297 239.934 240.529 240.529 51.4962 240.532 234.032 240.537 240.513 142.756 142.702 241.267 250 240.524 241.003 240.809 239.07 240.159 240.274 232.413 237.609 75.6648 75.546 75.4872 240.526 240.524 49.6971 242.564 233.141 159.677 240.713 240.523 203.17 240.523 240.523 240.524 240.53 240.899 236.33 236.73 241.147 46.6407 47.8828 47.4256 240.52 240.513 75.4745 76.0363 75.8199 50.0554 240.528 240.528 240.527 240.629 235.744 240.53 243.837 243.45 245.064 243.2 240.543 240.538 240.527 240.529 240.008 75.4389 242.423 142.698 74.4845 240.528 240.529 240.524 240.524 242.333 242.945 240.528 240.526 240.528 240.511 240.526 241.793 240.095 238.531 243.968 240.527 250 73.4897 242.786 240.542 240.561 240.559 241.071 240.666 242.304 240.582 242.215 75.7458 240.525 245.925 243.836 240.528 237.727 240.121 48.1597 240.105 66.3008 246.325 47.2404 240.528 234.516 76.2405 241.68 241.192 77.6602 51.9228 244.036 143.361 240.519 240.509 240.529 146.105 144.226 240.531 240.524 240.522 47.8701 241.765 239.601 241.507 240.533 142.705 240.429 242.487 143.315 75.4759 244.921 245.396 246.976 72.2539 89.2068 242.043 242.458 242.043 198.209 148.252 242.247 243.088 240.515 240.542 117.617 240.567 46.6706 122.945 240.457 240.415 240.531 54.1626 240.601 144.293 143.739 143.404 224.133 242.476 45.8209 45.9082 240.444 46.6897 143.511 75.6665 243.968 240.529 177.147 178.237 240.526 240.529 219.963 203.165 240.164 240.485 73.1034 240.526 106.537 248.539 250 240.493 240.571 238.214 240.639 240.631 114.008 240.741 240.526 240.549 240.408 240.526 240.562 53.4951 144.753 245.195 240.525 235.331 143.533 242.77 240.542 240.541 238.76 47.243 240.49 241.242 240.525 74.0672 74.3465 250 238.988 80.2372 142.482 142.66 244.233 244.045 243.935 46.7536 143.577 240.52 240.548 240.546 240.545 240.551 250 74.5114 74.3893 240.521 240.527 240.556 250 143.271 240.293 240.149 240.531 240.531 45.9189 142.748 240.498 240.496 240.529 240.528 240.413 240.418 240.391 250 240.674 240.6 240.596 240.525 142.666 75.5864 74.5118 75.1274 74.4834 76.0867 46.0714 242.433 48.4327 240.595 240.5 250 241.158 243.946 240.558 240.559 240.447 240.447 240.409 48.0425 240.559 240.445 75.5103 75.6112 45.5566 45.8246 179.062 142.663 240.528 45.6712 145.714 144.328 144.287 143.989 142.904 143.373 143.241 47.2495 76.1192 46.5207 46.6034 45.7022 45.6461 46.3924 46.5142 45.8691 243.958 244.109 74.0809 45.7011 142.564 75.742 75.6512 45.9829 143.422 142.675 142.574 45.7907 74.3786 74.399 46.5853 75.3938 143.207 75.4171 240.042 239.556 142.805 46.569 60.2531 74.3979 74.3741 45.8069 142.566 142.652 244.013 244.158 76.6721 250 247.487 250 75.4364 75.2563 46.3938 143.162 143.29 240.531 240.531 240.536 240.532 142.532 142.661 74.2778 74.4549 45.8749 45.6532 250 76.3554 76.5315 143.298 75.2554 46.7098 143.389 144.14 250 76.0225 47.202 240.832 240.61 250 143.458 142.513 74.1708 75.5394 47.117 246.402 144.713 143.092 77.1873 250 240.536 46.6625 250 240.537 75.5446 143.59 143.367 46.7054 46.5194 240.578 240.568 47.5362 241.496 242.275 240.579 240.522 240.528 144.068 143.383 250 240.618 75.8028 246.427 240.512 240.51 76.4762 240.507 240.514 142.649 250 143.243 143.391 75.3887 75.4693 143.448 143.276 75.4779 46.5279 240.52 240.535 238.11 237.836 240.604 240.624 240.523 240.563 240.528 240.094 240.524 46.6441 143.347 143.408 75.6312 75.4554 250 250 240.55 240.454 240.479 246.321 240.354 240.299 240.371 240.529 77.3938 76.1552 240.526 240.6 240.636 240.512 240.514 240.481 240.497 240.476 240.574 142.365 244.046 240.907 240.544 240.54 250 46.6393 46.6216 74.2212 45.7877 74.1734 142.513 243.942 244.019 240.525 240.402 224.623 240.551 240.546 244.143 244.227 240.31 240.535 46.0471 240.508 240.607 240.528 240.543 240.559 240.57 240.502 240.522 243.618 242.507 242.642 240.188 160.261 245.496 241.724 240.593 240.528 240.523 240.249 240.529 240.528 141.442 240.172 47.8522 245.571 240.457 46.7584 4.54204e-14 -9.14723e-14 3.22069e-14 3.39614e-14 4.05247e-14 -8.36406e-14 -5.1165e-14 6.65129e-14 -5.14915e-15 -1.38699e-13 -2.36618e-14 8.71773e-14 -3.55343e-13 4.13146e-13 -1.4513e-13 2.39319e-13 -4.15407e-14 -2.00588e-13 -1.34001e-13 -1.69713e-13 2.15593e-13 1.60116e-13 -1.12826e-13 -6.5989e-14 3.8114e-13 -4.51909e-13 1.07655e-13 1.49299e-13 0 9.12425e-14 -4.47192e-13 2.091e-13 -7.75453e-14 1.2116e-13 1.86864e-13 1.0687e-13 -5.08536e-14 2.06931e-14 1.303e-13 -6.34017e-14 4.55528e-15 -2.83221e-14 -1.1923e-13 -3.11977e-14 1.94464e-13 -1.70976e-14 -6.46729e-14 2.27102e-14 -7.20892e-14 -2.94021e-13 -1.42711e-13 4.5435e-13 0 2.53944e-14 1.00507e-14 -1.18005e-13 9.02849e-14 0 4.2847e-13 -5.93158e-13 2.49281e-13 3.21622e-14 -3.10849e-13 3.33612e-13 9.77657e-14 7.82976e-14 -2.93236e-13 1.65792e-13 2.03159e-13 1.72906e-13 -3.05554e-13 5.10567e-14 -4.31464e-14 -1.30206e-13 -1.65681e-13 3.20001e-13 -8.80892e-14 5.22579e-14 -6.83996e-14 5.21339e-14 -1.38448e-13 -9.28278e-14 -3.84218e-13 1.02905e-13 2.56511e-13 -1.01691e-13 -7.14874e-14 -1.67948e-14 -1.05071e-13 -1.8193e-14 -4.58731e-14 -1.27583e-13 1.17428e-13 -4.82228e-14 -1.13894e-13 -2.18894e-13 -7.31465e-14 3.84903e-14 4.84746e-14 -1.44277e-13 -4.44486e-14 -1.34511e-13 4.70317e-13 1.22903e-13 3.43091e-14 1.5027e-14 -3.27389e-13 1.45399e-13 7.06119e-14 -1.63146e-13 -1.50245e-14 -3.61076e-14 4.62396e-14 -3.4857e-13 5.23856e-13 -2.8481e-14 3.34418e-15 1.25275e-13 2.16456e-13 -9.63634e-15 -9.81827e-14 -8.39388e-14 -1.12628e-13 -2.46181e-13 1.34869e-13 -2.01474e-13 -2.63175e-13 -3.31568e-14 3.1579e-14 2.02849e-13 8.13615e-15 -1.43526e-13 0 -1.59438e-13 -1.25072e-13 3.00563e-13 7.05956e-14 -9.70025e-14 -4.75614e-14 1.96507e-13 0 1.55099e-14 2.593e-14 -3.89852e-14 1.86678e-13 1.19359e-13 -1.44817e-13 1.51164e-14 2.24129e-13 4.20095e-13 -1.41674e-13 1.02988e-14 -4.28975e-14 -1.25917e-13 4.5284e-13 2.09966e-14 3.52936e-14 2.23869e-14 9.61268e-14 -1.97289e-13 -3.2103e-14 3.55929e-14 5.78476e-14 4.18586e-13 -2.28102e-13 -1.43713e-13 4.54151e-13 -2.4904e-13 9.97044e-14 1.50139e-14 4.9263e-14 -8.23575e-14 4.26936e-14 -3.22763e-13 1.11799e-13 -1.66748e-14 8.97938e-14 -4.87182e-14 -3.24205e-13 1.26763e-13 -3.05853e-13 1.36593e-13 -5.78806e-14 -3.7955e-14 -2.8624e-13 1.61105e-13 -5.3125e-14 5.5015e-14 -2.11715e-13 -7.1736e-14 -8.69997e-14 -3.20746e-14 -1.94825e-14 5.31968e-14 1.16265e-13 2.36503e-13 8.93488e-14 1.08205e-12 -2.00093e-13 -8.55929e-13 2.01217e-13 3.30603e-13 -5.78872e-13 -6.83651e-13 -2.52217e-12 4.12909e-14 -5.3243e-13 5.72621e-13 -1.41978e-13 6.00148e-14 9.24313e-14 8.59864e-14 -1.52951e-13 6.07115e-14 9.94753e-14 -9.26958e-13 3.82978e-13 -3.45241e-14 1.47969e-13 -8.97549e-14 -2.2533e-13 1.54782e-13 -8.59003e-15 -3.24275e-13 8.86395e-13 -4.69823e-13 -4.05725e-14 -1.52072e-13 -4.15842e-14 4.93717e-14 -1.09668e-13 3.87298e-14 7.13797e-13 1.83797e-13 -8.93828e-13 3.16148e-13 2.40559e-13 -5.68137e-13 -2.73547e-13 1.35773e-13 1.72993e-13 -2.54177e-13 -3.70282e-13 4.15855e-13 1.98645e-12 -2.75026e-13 1.16109e-13 -5.42136e-14 2.38419e-13 -2.05968e-13 6.76633e-14 -1.03062e-13 9.38126e-13 4.66695e-13 -1.22103e-12 4.75359e-14 -7.16055e-13 -4.76509e-13 1.23677e-12 -3.61402e-14 1.15848e-13 -3.68349e-13 9.61984e-13 -1.16599e-14 1.01168e-12 -1.01237e-12 6.24816e-13 -