# vtk DataFile Version 2.0
Exported by getfem++
ASCII
DATASET UNSTRUCTURED_GRID
POINTS 494 float
 1.5 1.5 31.2
 0.5 1.5 30.4
 0.75 1 30.9
 0.75 1 31.2
 0 0.75 31.2
 -0.5 1.5 31.2
 -0.5 0.5 32
 0 0.75 31.5
 1 0.25 31.2
 1.5 0.5 32
 1 0.25 31.5
 1.5 -0.5 31.2
 0 0.25 31.5
 0 0.25 31.2
 -0.5 -0.5 31.2
 0.75 1 31.5
 0.5 1.5 32
 0.25 1 31.5
 0.25 1 31.2
 0.5 -0.5 32
 0.75 0 31.2
 0.75 0 31.5
 1 0.75 31.2
 1 0.75 30.9
 1.5 0.5 30.4
 0.25 0 31.2
 0.5 -0.5 30.4
 0.25 0 30.9
 0 0.25 30.9
 -0.5 0.5 30.4
 1 0.75 31.5
 0 0.75 30.9
 0.25 1 30.9
 0.75 0 30.9
 1 0.25 30.9
 0 0.25 30
 0 0 30
 -0.5 0.5 28.9845
 0.375 0.375 29.123
 0.25 0 30
 0.5 -0.5 28.9845
 0.25 0.75 33
 0.25 0.5 33
 0.5 0.5 33
 0.625 0.625 33.925
 0.5 0.75 33
 0.5 -0.5 43.0155
 0.5 1.5 43.0155
 -0.5 0.5 43.0155
 0.75 0.75 44
 1 0 30.9
 1 0.25 30.6
 1 0 30.6
 0 0 30.9
 0 0.25 30.6
 0.75 0.75 30
 1 0.75 30
 1 0.5 30
 0.875 0.875 29.2942
 0.5 1 30
 0.75 1 30
 0.75 1 33
 0.5 1 33
 0.75 0.75 33
 1 0.5 33
 1 0.75 33
 0.75 0.5 30
 0.5 0.75 30
 1.5 0.5 43.0155
 0.5 0.25 33
 0.75 0.25 33
 0.25 1 30
 0.5 1.5 28.9845
 0.125 0.875 29.4011
 0 0.75 30
 0 0.5 30
 0.5 0 30
 0.75 0 30
 0.875 0.125 29.4011
 1.5 0.5 28.9845
 1 0.25 30
 0.9375 0.0625 44
 0.75 0.5 33
 0.25 0 31.5
 0.5 1.5 36.8
 -0.5 0.5 36.8
 1.5 0.5 38.4
 0.5 1.5 38.4
 0.5 -0.5 40
 -0.5 0.5 38.4
 -0.5 0.5 40
 1.5 0.5 35.2
 1.5 0.5 36.8
 0.5 -0.5 35.2
 0.5 1.5 40
 1.5 0.5 40
 -0.5 0.5 35.2
 0.5 1.5 35.2
 0.5 -0.5 38.4
 0.5 -0.5 36.8
 -0.5 0.5 41.6
 0.5 -0.5 41.6
 1.5 0.5 41.6
 0.5 1.5 41.6
 0 1 30.9
 0.25 1 30.6
 0.5 0 33
 0.75 0 33
 0.125 0.125 33.7159
 0 0.75 33
 0 0.5 33
 1 0.25 33
 0.25 1 33
 0.191406 0.191406 44
 0 1 44
 1.5 -0.5 37.6
 1.5 1.5 36
 1.5 -0.5 40.8
 -0.5 -0.5 40.8
 -0.5 1.5 40.8
 -0.5 -0.5 37.6
 1.5 -0.5 39.2
 1.5 -0.5 36
 1.5 1.5 37.6
 1.5 1.5 39.2
 -0.5 1.5 37.6
 0.5 1.5 33.6
 1 1 33
 1.5 1.5 32.8
 1.5 0.5 33.6
 1.5 1.5 40.8
 -0.5 -0.5 36
 -0.5 1.5 36
 0 0 31.8
 0 0 31.5
 1 0 31.5
 1 0 31.8
 0.75 0 31.8
 1 1 31.5
 1 0.75 31.8
 1 1 31.8
 0.75 1 31.8
 0 0.75 31.8
 0 1 31.5
 0 1 31.8
 1 1 30.6
 1 1 30.9
 0 1 30.6
 0 0.75 30.6
 0.25 0 30.6
 0.75 0 30.6
 0.75 1 30.6
 0 0 30.6
 1 0.75 30.6
 0.25 1 31.8
 -0.5 -0.5 39.2
 -0.5 1.5 39.2
 0 0.25 31.8
 1 0.25 31.8
 0.25 0 31.8
 1 0 33
 0 1 33
 1 1 31.2
 0 1 31.2
 1 0 31.2
 0 0 31.2
 0 0.75 32.7
 0 1 32.7
 -0.5 1.5 32.8
 0.5 0 31.2
 1 0.5 31.2
 0 0.5 31.2
 1 0.25 32.7
 1.5 -0.5 32.8
 1 0 32.7
 0.25 1 32.7
 -0.5 -0.5 32.8
 0 0 33
 0 0.25 32.7
 0 0.25 33
 0.25 0 32.7
 0 0 32.7
 0.25 0 33
 0.75 0 32.7
 1 1 32.7
 0.75 1 32.7
 1 0.75 32.7
 0.5 1 31.5
 0.5 1 31.2
 0 0.5 31.5
 1 0.5 31.5
 0.5 0 31.5
 0 0.5 30.9
 0.5 1 30.9
 1 0.75 32.4
 1 0.5 32.7
 0 0.25 32.4
 0 0.5 32.4
 0.75 0 32.4
 0.5 0 32.7
 0.5 0 32.4
 0.25 0 32.4
 1 0.5 32.4
 1 0.25 32.4
 0.5 1 32.7
 0.5 1 32.4
 0.75 1 32.4
 0.25 1 32.4
 0 0.75 32.4
 0 0.5 32.7
 1 1 30.3
 0 1 30.3
 0 0 30.3
 0.5 0.5 30
 0.25 0.75 30
 1 0 30.3
 0.25 0.5 30
 0.75 0.25 30
 0.5 0.25 30
 0.5 -0.5 33.6
 -0.5 0.5 33.6
 0.25 0.25 30
 0 0 32.1
 1 0 32.1
 0 1 32.1
 1 1 32.1
 -0.5 -0.5 44
 1.5 -0.5 28
 0.9375 0.0625 28
 0.5 -0.5 28
 1.5 1.5 44
 0.5 1.5 44
 1.5 0.5 44
 1.5 0.5 28
 1.5 1.5 28
 0.75 0.75 28
 0.5 1.5 28
 -0.5 -0.5 29.6
 -0.5 -0.5 28
 0.191406 0.191406 28
 1.5 -0.5 34.4
 -0.5 1.5 34.4
 1 0 30
 0.75 0 30.3
 0 0.75 32.1
 0 0.25 30.3
 1 0.25 30.3
 0.75 0 32.1
 0.75 1 32.1
 1 0.75 32.1
 0.25 1 30.3
 0.25 0 30.3
 1.5 -0.5 44
 0.5 -0.5 44
 -0.5 1.5 44
 -0.5 0.5 44
 -0.5 0.5 28
 0 1 28
 1.5 1.5 34.4
 0 1 30
 0.25 0.25 33
 0.5 1 30.6
 1 0.5 31.8
 0.5 1 31.8
 0.5 0 31.8
 0 0.5 31.8
 0 0.5 30.6
 0.5 0 30.9
 0.5 0 30.6
 1 0.5 30.9
 1 0.5 30.6
 1.5 1.5 42.4
 1.5 -0.5 42.4
 -0.5 -0.5 34.4
 0.25 0 32.1
 0.25 1 32.1
 1 0.25 32.1
 0 0.75 30.3
 1 0.75 30.3
 0 0.25 32.1
 0.75 1 30.3
 -0.5 1.5 28
 1.5 1.5 29.6
 0 0 32.4
 0 1 32.4
 1 0 32.4
 1 1 32.4
 -0.5 1.5 29.6
 1 1 30
 1.5 -0.5 29.6
 -0.5 1.5 42.4
 -0.5 -0.5 42.4
 1 0.5 32.1
 0.5 0 30.3
 0.5 0 32.1
 0 0.5 30.3
 1 0.5 30.3
 0.5 1 32.1
 0.5 1 30.3
 0 0.5 32.1
 0.25 0.9 31.5
 0.25 0.9 31.8
 0.5 0.9 31.5
 0.9 0.5 31.5
 0.9 0.25 31.8
 0.9 0.5 31.8
 0.9 0.75 31.5
 0.5 0.9 31.8
 0.75 0.9 31.5
 0.25 0.1 31.5
 0.25 0.1 31.8
 0.5 0.1 31.5
 0.5 0.1 31.8
 0.1 0.1 32.9
 0.1 0.25 32.9
 0.25 0.1 32.9
 0.1 0.5 31.5
 0.1 0.25 31.8
 0.1 0.5 31.8
 0.25 0.25 32.9
 0.1 0.9 32.1
 0.25 0.9 32.1
 0.9 0.1 32.1
 0.9 0.25 32.1
 0.9 0.1 31.8
 0.1 0.25 31.5
 0.1 0.75 31.5
 0.1 0.75 31.8
 0.75 0.9 31.8
 0.9 0.75 31.8
 0.75 0.1 31.5
 0.75 0.1 31.8
 0.9 0.25 31.5
 0.1 0.5 32.9
 0.25 0.5 32.9
 0.5 0.1 32.9
 0.5 0.25 32.9
 0.75 0.1 32.1
 0.25 0.1 30.6
 0.25 0.1 30.9
 0.5 0.1 30.6
 0.5 0.1 31.2
 0.9 0.9 32.9
 0.9 0.9 32.7
 0.75 0.9 32.9
 0.9 0.5 30.6
 0.9 0.75 30.6
 0.9 0.5 30.9
 0.1 0.75 30.6
 0.1 0.5 30.9
 0.1 0.75 30.9
 0.9 0.25 30.9
 0.9 0.25 30.6
 0.1 0.5 30.6
 0.1 0.25 30.9
 0.5 0.9 30.9
 0.75 0.9 30.6
 0.75 0.9 30.9
 0.9 0.75 30.9
 0.5 0.1 30.9
 0.75 0.1 30.6
 0.1 0.25 30.6
 0.1 0.9 31.8
 0.5 0.9 30.6
 0.75 0.1 30.9
 0.25 0.9 30.6
 0.25 0.9 30.9
 0.1 0.1 32.1
 0.25 0.1 32.1
 0.9 0.9 30.3
 0.9 0.9 30.6
 0.9 0.75 30.3
 0.1 0.9 30.3
 0.1 0.9 30.6
 0.1 0.75 30.3
 0.75 0.1 32.9
 0.75 0.1 32.7
 0.1 0.75 32.1
 0.1 0.1 30.6
 0.1 0.25 30.3
 0.1 0.1 30.3
 0.5 0.1 32.7
 0.1 0.5 32.7
 0.1 0.75 32.7
 0.1 0.75 32.9
 0.9 0.25 32.9
 0.9 0.5 32.9
 0.9 0.5 32.7
 0.9 0.75 32.9
 0.9 0.75 32.7
 0.25 0.9 32.9
 0.5 0.9 32.9
 0.5 0.9 32.7
 0.75 0.9 32.7
 0.25 0.9 30.3
 0.25 0.1 32.7
 0.9 0.9 32.4
 0.1 0.9 32.4
 0.1 0.9 32.7
 0.9 0.1 32.4
 0.9 0.1 32.7
 0.1 0.5 30.3
 0.5 0.1 30.3
 0.75 0.1 30.3
 0.1 0.25 32.1
 0.1 0.5 32.1
 0.5 0.9 32.1
 0.9 0.5 32.1
 0.9 0.9 31.8
 0.9 0.75 32.1
 0.1 0.9 30.1
 0.1 0.75 30.1
 0.25 0.75 30.1
 0.25 0.9 30.1
 0.9 0.1 30.1
 0.75 0.1 30.1
 0.75 0.25 30.1
 0.9 0.25 30.1
 0.9 0.1 30.3
 0.9 0.1 30.6
 0.25 0.1 30.3
 0.9 0.25 30.3
 0.75 0.9 32.1
 0.1 0.1 31.8
 0.9 0.9 32.1
 0.75 0.9 30.3
 0.1 0.9 32.9
 0.25 0.9 32.7
 0.9 0.9 30.9
 0.75 0.9 31.2
 0.1 0.1 30.9
 0.1 0.1 31.2
 0.9 0.1 30.9
 0.9 0.1 31.2
 0.1 0.1 32.7
 0.1 0.25 32.7
 0.9 0.9 31.2
 0.9 0.9 31.5
 0.1 0.25 30.1
 0.25 0.1 30.1
 0.25 0.25 30.1
 0.1 0.1 30.1
 0.1 0.9 31.2
 0.1 0.9 31.5
 0.9 0.1 32.9
 0.9 0.25 32.7
 0.1 0.9 30.9
 0.1 0.75 31.2
 0.1 0.25 31.2
 0.1 0.5 31.2
 0.5 0.9 31.2
 0.25 0.9 31.2
 0.75 0.1 31.2
 0.9 0.25 31.2
 0.25 0.75 32.9
 0.75 0.25 32.9
 0.9 0.75 31.2
 0.25 0.1 31.2
 0.1 0.1 31.5
 0.9 0.1 31.5
 0.9 0.5 31.2
 0.1 0.1 32.4
 0.1 0.25 32.4
 0.9 0.25 32.4
 0.25 0.9 32.4
 0.25 0.1 32.4
 0.75 0.1 32.4
 0.1 0.75 32.4
 0.75 0.9 32.4
 0.9 0.75 32.4
 0.5 0.5 30.1
 0.5 0.75 30.1
 0.9 0.5 32.4
 0.5 0.1 32.4
 0.1 0.5 32.4
 0.5 0.25 30.1
 0.75 0.5 30.1
 0.25 0.5 30.1
 0.5 0.9 32.4
 0.75 0.75 30.1
 0.75 0.75 32.9
 0.5 0.75 32.9
 0.75 0.5 32.9
 0.9 0.9 30.1
 0.75 0.9 30.1
 0.9 0.75 30.1
 0.5 0.5 32.9
 0.1 0.5 30.1
 0.5 0.9 30.1
 0.9 0.5 30.1
 0.5 0.1 30.1
 0.5 0.9 30.3
 0.9 0.5 30.3
 0.5 0.1 32.1

CELLS 1207 6803
 4 0 1 2 3
 4 4 5 6 7
 4 8 9 10 11
 4 12 13 14 6
 4 15 16 0 3
 4 17 18 5 16
 4 19 20 21 11
 4 0 22 23 24
 4 25 26 14 27
 4 13 28 14 29
 4 0 30 22 9
 4 31 5 29 4
 4 32 5 18 1
 4 26 33 20 11
 4 24 8 34 11
 4 35 36 37 38
 4 39 40 36 38
 4 41 42 43 44
 4 43 45 41 44
 4 46 47 48 49
 4 50 51 24 52
 4 53 28 54 29
 4 55 56 57 58
 4 59 60 55 58
 4 61 62 63 44
 4 64 65 63 44
 4 57 66 55 58
 4 59 55 67 58
 4 68 47 46 49
 4 43 69 70 44
 4 71 72 59 73
 4 74 75 37 73
 4 76 77 40 78
 4 79 80 57 78
 4 68 46 81 49
 4 45 63 62 44
 4 63 82 64 44
 4 14 25 83 19
 4 84 85 86 87
 4 88 87 89 90
 4 91 92 85 93
 4 94 88 87 95
 4 91 96 85 97
 4 91 85 96 93
 4 85 84 92 91
 4 86 85 89 87
 4 85 84 86 92
 4 88 94 87 90
 4 85 84 91 97
 4 89 86 88 98
 4 99 85 89 86
 4 92 99 85 93
 4 90 94 100 88
 4 101 88 100 102
 4 98 99 89 86
 4 86 89 88 87
 4 86 99 85 92
 4 102 103 100 68
 4 70 82 43 44
 4 24 57 56 79
 4 76 26 40 77
 4 59 71 1 72
 4 39 26 40 76
 4 79 24 57 80
 4 72 1 59 60
 4 37 29 75 74
 4 29 75 35 37
 4 104 32 105 1
 4 102 46 100 101
 4 69 106 107 108
 4 109 110 42 108
 4 64 82 111 44
 4 62 112 45 44
 4 61 63 65 44
 4 113 48 114 49
 4 94 103 88 95
 4 86 98 99 115
 4 97 84 91 116
 4 91 84 92 116
 4 117 88 101 102
 4 100 118 90 88
 4 119 94 103 100
 4 94 119 90 100
 4 99 89 120 98
 4 86 95 88 121
 4 92 86 99 115
 4 99 92 122 93
 4 84 86 92 123
 4 95 94 124 87
 4 85 125 89 87
 4 88 100 118 101
 4 123 84 86 87
 4 124 86 95 87
 4 125 85 84 87
 4 89 120 85 99
 4 43 82 45 44
 4 16 18 5 1
 4 6 13 14 29
 4 25 14 26 19
 4 5 6 29 4
 4 126 127 61 128
 4 127 129 65 128
 4 57 56 79 58
 4 59 72 60 58
 4 63 45 82 44
 4 86 88 98 121
 4 94 103 95 130
 4 117 95 88 102
 4 102 95 103 130
 4 131 85 99 93
 4 85 96 132 97
 4 85 131 96 93
 4 91 122 92 93
 4 84 85 132 97
 4 52 33 26 50
 4 12 133 6 134
 4 135 136 137 19
 4 138 139 9 140
 4 138 140 16 141
 4 6 142 143 144
 4 1 145 146 2
 4 145 23 24 146
 4 147 31 29 148
 4 31 147 29 104
 4 17 144 16 143
 4 149 53 26 27
 4 33 52 26 150
 4 2 1 145 151
 4 51 50 24 34
 4 152 53 54 29
 4 23 145 24 153
 4 53 149 26 152
 4 104 105 147 1
 4 144 17 16 154
 4 89 88 90 155
 4 94 90 156 87
 4 89 156 90 87
 4 89 88 155 98
 4 76 40 39 78
 4 75 35 37 73
 4 47 114 48 49
 4 9 10 135 136
 4 86 88 95 87
 4 137 21 135 19
 4 142 7 6 143
 4 139 138 9 30
 4 133 12 6 157
 4 133 134 83 19
 4 10 9 158 136
 4 83 159 133 19
 4 15 138 16 141
 4 22 146 0 23
 4 107 160 70 44
 4 41 112 161 44
 4 104 4 5 31
 4 20 33 50 11
 4 162 0 146 3
 4 162 146 0 22
 4 163 32 5 18
 4 20 50 164 11
 4 165 28 14 13
 4 161 109 41 44
 4 164 34 8 11
 4 104 4 163 5
 4 28 165 14 53
 4 27 14 25 165
 4 32 163 5 104
 4 2 146 0 3
 4 14 27 53 165
 4 50 34 164 11
 4 166 167 168 109
 4 169 25 26 19
 4 170 24 9 8
 4 29 6 13 171
 4 172 160 173 111
 4 160 172 173 174
 4 175 161 168 167
 4 176 177 178 179
 4 180 176 177 181
 4 176 177 181 178
 4 7 163 5 143
 4 167 161 168 109
 4 161 175 168 112
 4 180 177 176 182
 4 174 107 183 173
 4 107 174 160 173
 4 184 61 128 185
 4 65 186 184 128
 4 160 111 70 44
 4 10 170 9 8
 4 3 15 16 187
 4 17 188 16 187
 4 12 171 6 189
 4 4 6 171 189
 4 170 10 9 190
 4 188 17 16 18
 4 171 12 6 13
 4 169 83 25 19
 4 191 20 19 169
 4 170 9 22 190
 4 30 22 9 190
 4 191 83 169 19
[...]
POINT_DATA 494


SCALARS Electric_potential float 1
LOOKUP_TABLE default
 100 100 31.6344 29.9757 29.9692 100 100 31.6607 29.999 100 31.3793 100 31.3368 29.9832 100 31.6916 100 31.3793 29.9989 100 29.9694 31.6607 29.9757 31.6344 100 29.9832 100 31.9991 31.9992 100 31.6916 31.6552 32.0068 31.6556 32.0072 52.7408 63.3551 100 87.1121 52.8067 100 35.9695 30.8681 25.8129 93.8203 29.2793 100 100 100 100 39.99 30.2817 48.2605 39.9868 30.2392 31.831 54.131 49.9237 87.5395 49.9022 54.1235 55.3079 48.1254 34.1521 48.1254 55.3079 31.4485 31.3996 100 30.8681 35.9695 54.0977 100 83.513 55.4713 51.981 52.1726 55.5301 83.4668 100 54.1315 100 29.2793 31.3368 100 100 100 100 100 100 100 100 100 100 100 100 100 100 100 100 100 100 100 100 39.9892 30.2809 46.2596 52.8848 91.6584 52.8848 46.2596 55.0591 55.0591 100 100 100 100 100 100 100 100 100 100 100 100 100 100 72.2554 100 100 100 100 100 45.6834 39.0678 39.171 45.916 29.5726 39.2438 29.6035 46.0742 29.6035 29.5726 39.171 45.916 48.1018 39.9275 48.2584 30.2202 30.2387 30.2216 30.1558 48.246 30.156 29.4998 100 100 29.4257 29.4999 29.4257 69.7058 69.7058 39.37 39.3568 39.3569 39.3275 39.8036 45.0721 100 27.2024 27.2094 27.2024 41.6226 100 45.0721 41.6226 100 60.313 39.4204 49.527 39.4204 43.4152 49.527 39.8036 46.2978 40.8746 40.8746 26.073 27.2093 26.0638 26.073 26.0639 26.1422 26.1433 31.4188 36.3645 31.2019 27.533 31.4041 35.3313 27.533 31.2019 27.7778 31.5761 36.3645 27.7778 31.4188 31.5761 31.4041 35.3313 58.7273 58.4617 57.7979 29.3696 30.6824 58.4662 28.0448 31.1315 30.7799 100 100 34.2849 53.2605 53.1168 53.1168 52.7837 100 100 100 100 100 100 100 100 100 100 100 100 100 100 100 100 64.0733 35.0281 31.4368 34.6675 35.1213 31.4368 31.3413 31.3413 35.1161 34.6694 100 100 100 100 100 100 100 64.0596 30.6565 25.4554 25.144 25.144 25.1265 25.1265 25.4702 26.1424 25.472 26.1434 25.4558 100 100 100 31.2728 31.2737 31.2737 35.0189 34.9354 31.2728 34.9343 100 100 47.1921 46.8215 46.8215 45.9766 100 63.4932 100 100 100 25.8762 29.3178 25.8734 29.294 29.1356 25.8762 29.1322 25.8734 1.29381e-11 4.96201e-12 -1.79051e-11 -7.43703e-12 1.44087e-11 -6.97071e-12 2.15075e-11 5.71904e-12 8.91533e-12 6.32607e-12 -1.30592e-12 -5.02063e-12 5.37933e-12 1.21396e-11 -3.2601e-12 -8.89102e-12 -6.41529e-12 -8.87542e-12 1.52852e-11 1.2155e-11 2.61024e-12 -1.06792e-11 -3.70623e-12 -1.06978e-11 -1.11104e-11 1.17208e-11 -1.97253e-11 4.44825e-12 -1.46282e-11 -1.46218e-11 -3.62829e-13 -5.02998e-12 -3.31359e-12 -9.37604e-12 -2.7804e-12 -3.2661e-12 1.87149e-12 1.48068e-11 1.06042e-11 -7.94882e-13 -9.82502e-12 1.35059e-12 -1.24728e-11 3.89222e-12 8.5833e-12 5.65049e-12 -7.60665e-12 1.95916e-12 4.56756e-12 1.33022e-11 -1.7864e-11 -2.84294e-12 -2.81469e-12 -1.03705e-11 -2.92704e-12 2.15356e-11 -7.60065e-12 -1.3939e-11 3.1273e-12 8.49406e-12 1.33733e-12 1.32913e-11 -1.78849e-11 1.96707e-11 -9.82317e-12 -1.80368e-11 -1.55603e-12 4.15381e-12 4.61985e-12 3.12072e-12 4.48081e-12 1.95254e-12 -2.97446e-12 -1.60286e-12 5.80652e-12 1.39188e-12 1.87371e-12 1.52737e-11 -2.34693e-13 -4.86883e-12 5.11124e-12 1.49829e-11 1.26342e-11 -1.11597e-12 1.04801e-11 -7.81187e-12 1.31614e-11 -5.30841e-12 3.90636e-12 -7.79849e-12 -3.26493e-12 1.48979e-12 1.77194e-12 -1.00803e-11 4.55912e-12 -6.09066e-12 -5.33384e-12 8.91601e-12 -7.78088e-12 2.05455e-11 -3.28425e-12 -8.42099e-12 1.02925e-11 -4.65805e-13 4.71311e-12 -1.97174e-11 8.90907e-12 1.76653e-11 1.76744e-11 -3.05915e-12 -5.64262e-12 -1.70962e-13 5.3853e-12 -1.15242e-12 1.04412e-11 -1.03984e-11 -3.09916e-14 -7.49214e-12 -3.00251e-12 -5.15477e-12 -1.03805e-11 7.97042e-12 -7.59528e-12 -2.84787e-12 -1.00759e-11 4.48108e-12 -2.78004e-12 6.04118e-12 9.45518e-12 8.99613e-12 -1.03669e-11 1.11658e-11 6.1519e-12 -3.30953e-12 -6.13866e-12 -8.88277e-12 -1.84589e-11 -3.04746e-12 -3.72669e-12 6.33028e-12 -3.39482e-12 -2.60689e-12 6.27182e-12 1.346e-11 -9.83198e-12 1.31036e-11 1.96433e-11 2.24499e-11 -8.24533e-12 -5.06376e-12 4.94048e-12 -2.6398e-11 3.67326e-12 -1.28061e-11 -7.6972e-12 8.46926e-12 -1.39727e-11 -7.67406e-12 -3.47405e-12 1.61203e-11 1.0852e-11 -8.87854e-12 1.50159e-11 -9.84201e-12 1.77201e-12 4.23884e-12 -1.68415e-11 -1.15196e-11 1.54113e-11 1.31367e-11 -5.13067e-12 -2.62712e-13 -7.79533e-12 1.85779e-12 -3.76381e-12 1.04187e-11 7.5261e-12 -5.21106e-12 -7.81592e-12 -7.25882e-12 -1.24894e-11 1.09889e-11 -6.61107e-13 -7.59373e-12 3.12167e-12 5.63116e-12 -1.03217e-11 8.59692e-12 3.03925e-12 -4.79457e-13 9.36046e-14 -7.60035e-12 -5.13243e-12 -9.77461e-12
