# vtk DataFile Version 2.0
Exported by getfem++
ASCII
DATASET UNSTRUCTURED_GRID
POINTS 2712 float
 -58.3108 48.0068 113.5
 -64.724 34.5851 113.5
 -64.8208 48.0068 101.325
 -55.0656 32.5679 97.9711
 40.3089 -41.9932 20.2563
 51.6892 -30.9687 28.6461
 51.6892 -28.6818 10.7435
 31.334 -27.3338 18.2045
 -32.3567 48.0068 38.104
 -18.3108 48.0068 36.8007
 -21.6 48.0068 48.8834
 -17.8728 35.5807 46.8158
 -19.7769 -23.8602 26.6
 -13.7422 -18.2905 26.6
 -20.8338 -15.2213 26.6
 -21.1188 -15.1833 37.1705
 -88.3108 -28.2043 26.6688
 -88.3108 -14.4845 34.6547
 -88.3108 -28.2635 42.4642
 -70.6844 -24.8829 31.6256
 0.578619 -20.3967 85.773
 -1.15906 -27.3047 75.2514
 10.016 -23.8399 70.2957
 10.0849 -29.703 82.641
 51.6892 -16.6284 -80.8607
 38.5601 -13.3715 -86.7418
 35.0978 -23.3093 -76.4065
 37.4494 -10.0968 -67.4167
 -31.9295 11.1531 41.6749
 -29.894 0.404994 48.4237
 -29.9203 1.4186 37.2626
 -24.3687 7.78462 41.6749
 16.6892 37.9327 -25.8
 16.6892 33.0068 -15.8
 33.3805 31.3877 -24.2309
 26.9035 36.1237 -11.2671
 3.50517 21.5191 -15.8
 -1.32903 28.3585 -15.8
 11.6892 28.7806 -25.8
 -3.11593 16.6363 -26.6603
 -22.4186 -10.5902 -65.2417
 -6.71751 3.85356 -58.8557
 -13.3322 -9.24489 -51.7958
 -4.69156 -10.8723 -65.4992
 -49.8622 36.1462 113.5
 -11.8613 7.6749 -15.8
 -7.74086 3.75422 -26.6001
 -11.3683 3.64069 -15.8
 -15.4295 4.3937 -22.0315
 -17.7811 -12.7835 -35.8
 -19.3171 -0.729379 -24.489
 -24.8676 0.760747 -35.8
 -34.0125 -5.42372 -26.2801
 -6.26016 -23.5632 -54.98
 -6.95464 -21.0331 -78.0183
 -15.9718 -28.4864 -67.2073
 3.50517 21.5191 25.8
 1.61836 13.1563 25.8
 -3.9417 20.1607 25.8
 -4.9364 23.9897 15.8
 1.61836 13.1563 5.8
 3.50517 21.5191 5.8
 -3.9417 20.1607 5.8
 -30.6668 -8.5038 -15
 -23.7141 -4.87705 -5
 -27.7673 -0.698839 -8.70047
 -30.8019 -12.2912 -4.54216
 -30.9904 48.0068 103.632
 -38.0649 48.0068 98.423
 -28.8373 48.0068 97.658
 -26.8855 38.6983 101.736
 -43.7573 -41.9932 89.9789
 -37.4087 -41.9932 77.6175
 -50.0189 -41.9932 77.1387
 -49.2847 -27.1549 85.5553
 -88.3108 -14.2266 -28.5258
 -88.3108 -0.324114 -36.2983
 -88.3108 -0.569413 -20.5016
 -70.2723 -7.04934 -31.6954
 22.1415 -14.7423 82.3778
 31.914 -3.33391 79.6057
 21.4135 1.47839 69.6097
 17.4599 -1.17571 83.1716
 40.3191 48.0068 -29.3121
 51.6892 48.0068 -28.7
 51.6892 34.2575 -20.8359
 51.6892 34.2306 -36.6665
 -31.7256 6.43997 26.6
 -27.7999 1.69576 26.6
 -26.4304 7.18497 26.6
 -24.2873 7.17811 32.5971
 26.3085 7.08264 -123.5
 33.5146 -1.36126 -104.258
 37.048 -4.10256 -123.5
 33.3735 13.2309 -109.437
 -88.3108 -28.2147 -36.5519
 -88.3108 -28.0613 -20.7361
 -88.3108 -41.9932 -28.7
 -74.7852 -41.9932 -33.5737
 -33.5439 -18.9305 -123.5
 -45.9815 -16.3192 -123.5
 -47.6492 -28.4105 -123.5
 -41.4176 -22.0851 -102.807
 -53.3108 33.0068 -15
 -53.3108 37.9327 -5
 -59.9621 48.0068 -9.97672
 -68.6449 33.3728 -15.4575
 51.6892 -18.8271 23.6551
 -39.3999 26.0069 -36.6
 -53.3108 18.0068 -36.6
 -47.867 32.8419 -52.1625
 -41.9494 17.6723 -51.2105
 16.6892 18.0068 -36.6
 16.6892 3.00676 -36.6
 35.6943 9.66844 -44.6737
 31.8347 17.9193 -31.9866
 -53.3108 -26.9932 5.8
 -53.3108 -31.9191 15.8
 -70.0056 -25.373 14.238
 -63.8149 -29.9857 1.09614
 38.8688 -41.9932 74.4326
 51.6892 -41.9932 81.9
 51.6892 -33.1274 74
 51.6892 -29.3482 88.6195
 -27.1943 2.05202 -15.8
 -23.9025 4.93901 -15.8
 -22.8773 1.21909 -15.8
 -22.3313 6.07059 -20.4856
 -25.6206 12.8395 35.2411
 -74.8182 48.0068 -19.5268
 -88.3108 48.0068 -12.9
 -88.3108 36.9289 -22.8465
 -88.3108 34.6768 -4.94371
 -11.9182 -17.7035 -36.6
 -25.591 -22.1632 -36.6
 -26.5195 -10.7711 -36.6
 1.54163 -3.29789 25.8
 11.6892 -8.65991 25.8
 0.15496 -14.3856 25.8
 11.6892 -1.57658 15.8
 1.54163 -3.29789 5.8
 11.6892 -8.65991 5.8
 0.15496 -14.3856 5.8
 -55.7705 -26.5306 -109.377
 -50.5785 -9.25839 -108.525
 -60.5137 -13.8021 -95.8055
 -40.4098 -9.88938 -90.4097
 -54.3006 0.871075 -92.547
 16.0154 17.6353 113.5
 3.7257 24.9289 113.5
 15.6934 33.4942 113.5
 12.8177 20.6711 96.2826
 -1.43724 -29.5108 95.1419
 14.7116 -23.0072 96.3052
 1.01091 -16.0597 99.4195
 -31.4175 20.7349 70.4709
 -33.2739 33.4485 78.3404
 -43.7495 19.0552 76.8314
 -32.4261 20.3292 82.9164
 -29.8443 23.7556 -15.8
 -22.6912 23.7476 -15.8
 -26.8959 17.6761 -15.8
 -21.9305 15.541 -23.8359
 -23.9025 4.93901 25.8
 -22.8773 1.21909 25.8
 -27.1943 2.05202 25.8
 -22.3835 3.35641 20.2557
 -67.0927 48.0068 23.4696
 -74.1925 48.0068 31.4319
 -77.0533 48.0068 20.5911
 -70.234 33.2919 21.599
 -26.1996 7.97635 5
 -24.3612 10.0694 -1.50779
 -23.9088 10.7026 5
 -22.0532 6.75648 1.4247
 -65.0728 -41.9932 -75.0742
 -73.5394 -41.9932 -84.5054
 -75.7988 -41.9932 -68.2588
 -69.1253 -22.8151 -79.9209
 -61.313 14.6615 -97.5641
 -41.5819 3.47009 -102.345
 -56.0332 5.56119 -109.371
 51.6892 -5.94565 -44.8557
 51.6892 -15.9463 -37.4363
 51.6892 -6.20784 -29.088
 35.5971 -11.7719 -41.9648
 11.6892 -1.57277 -25.8
 0.15496 -14.3856 -15.8
 11.6892 -8.65991 -15.8
 1.54163 -3.29789 -15.8
 -50.6724 -29.6108 113.5
 -64.4588 -27.6041 113.5
 -53.3253 -18.1295 113.5
 -48.682 -21.2539 99.4585
 -53.3108 25.5068 -25.8
 -53.3108 33.0068 -35.8
 -53.3108 18.0068 -35.8
 -71.49 30.3071 -31.0882
 -57.2348 48.0068 6.28012
 -58.6353 48.0068 -0.661211
 -53.3108 33.0068 5
 -66.6602 34.4754 9.54677
 -88.3108 -0.662087 -4.70544
 -88.3108 -0.642348 11.0873
 -88.3108 -14.3723 3.07563
 -70.1578 -9.54286 6.11858
 -58.0827 -41.9932 88.6453
 -63.1625 -41.9932 76.3067
 -47.986 31.9102 45.525
 -63.6854 25.5039 51.6158
 -56.61 37.0315 38.472
 -57.0445 23.0656 39.5208
 32.965 -41.9932 38.3609
 41.7787 -41.9932 40.9958
 37.53 -41.9932 31.3902
 34.8565 -23.0047 35.3702
 -19.0481 -41.9932 37.0874
 -6.61379 -41.9932 38.5522
 -16.5975 -32.4531 26.6
 -17.8371 -27.666 38.9019
 -23.9025 4.93901 5
 -20.8048 4.87943 5
 -22.8773 1.21909 5
 -48.3108 -17.7671 -25.8
 -48.3108 -1.57658 -25.8
 -38.228 -7.12984 -15.8
 -88.3108 27.0978 -36.0798
 -88.3108 13.1691 -28.2914
 -88.3108 12.6414 -44.0938
 -70.9602 10.5068 -36.2
 -88.3108 -19.0651 -112.297
 -88.3108 -31.2833 -112.835
 -76.6662 -19.2672 -123.5
 -71.6198 -23.4318 -106.525
 -14.8333 2.84804 26.6
 -19.3015 3.66609 31.4073
 -14.6401 0.329226 32.9197
 -16.5623 6.14171 29.419
 -27.9605 -20.4253 26.6
 -27.6304 -31.0618 26.6
 -29.6771 -22.5861 40.7979
 14.5194 9.00568 56.5095
 22.4299 -6.97172 57.4024
 8.57488 1.50754 65.2096
 -18.2843 -30.7828 -36.6
 -31.8776 -31.3694 -36.6
 -25.7706 -25.8243 -54.9339
 -28.0101 11.7654 -15
 -29.3623 15.0806 -4.7998
 -24.3612 10.0694 -8.49221
 -21.9281 15.5418 -9.41906
 -11.8613 7.6749 25.8
 -14.7069 9.74229 25.8
 -11.0624 11.7531 25.8
 -11.4132 7.09969 18.4066
 -48.3108 -29.3199 -9.12536
 -36.892 -25.6576 -15
 -48.3108 -17.7671 -5
 -48.3108 -29.1871 -1.42857
 -4.79901 48.0068 103.182
 -10.0398 48.0068 96.3863
 -1.45803 48.0068 95.4156
 -0.613753 36.0736 100.381
 -88.3108 18.0278 90.991
 -88.3108 1.26541 88.6027
 -72.1913 9.42409 82.7495
 -72.1265 9.20662 98.7963
 -53.3108 25.5068 -5
 -70.8014 30.5672 -0.295713
 -26.5278 17.9036 26.6
 -19.7342 19.5422 26.6
 -26.4648 23.4116 26.6
 -28.8622 20.6847 34.327
 -73.6747 -41.9932 42.3302
 -65.765 -41.9932 31.967
 -76.4107 -41.9932 27.6417
 51.6892 34.162 10.7686
 51.6892 20.2561 18.5349
 51.6892 33.9606 26.5529
 33.5459 30.7327 15.5928
 29.1892 48.0068 100.51
 29.9583 35.5916 113.5
 21.6892 48.0068 113.5
 20.4239 33.9944 97.3847
 -44.6419 3.14897 -79.6612
 -55.1184 -10.4812 -79.8233
 -66.9249 2.70098 -76.9758
 -34.1751 -41.9932 -92.9367
 -34.3106 -41.9932 -109.121
 -28.4935 -27.5263 -95.6744
 -3.32283 -25.8115 -15.8
 -1.72507 -14.3126 -35.8
 0.976767 -26.5085 -35.8
 -53.3108 -11.9932 5.8
 -53.3108 3.00676 5.8
 -53.3108 3.00676 5
 -53.3108 -11.9932 5
 -88.3108 38.8198 10.8
 -88.3108 34.6405 26.6545
 -88.3108 26.3443 11.2471
 -53.3108 -11.9932 -35.8
 -53.3108 -19.4932 -25.8
 -53.3108 -4.49324 -25.8
 -34.721 0.368405 26.6
 -40.0835 4.85141 26.6
 -41.7538 -5.30963 26.6
 -36.1137 7.46958 34.4943
 -48.3108 -29.3199 11.6746
 -48.3108 -17.7671 15.8
 -48.3108 -29.1871 19.3714
 -36.892 -25.6576 5.8
 -37.5816 -4.39521 113.5
 -28.3108 -11.9932 110.5
 -40.9894 -18.0663 113.5
 -44.5269 -7.08298 96.2328
 -73.6765 -4.05638 -123.5
 -62.9444 7.20189 -123.5
 -76.0061 10.8443 -123.5
 -70.5473 -0.354242 -104.994
 -3.32283 -25.8115 5
 -16.6187 -24.2527 5
 -3.32283 -25.8115 -15
 -10.8108 -36.9932 -5
 37.7223 48.0068 -52.0207
 51.6892 48.0068 -60.3
 51.6892 34.2796 -52.4635
 38.9586 48.0068 -66.55
 51.6892 -6.11139 -75.6042
 32.8186 2.1769 -76.8416
 3.55791 16.3674 53.2058
 2.30208 3.5193 54.0806
 9.79564 6.69721 41.8262
 -62.5754 -21.9095 67.1468
 -59.5143 -14.2936 86.0463
 -72.5231 -11.9564 75.9793
 -70.5909 -27.7852 80.3664
 -38.4368 38.1329 -15.8
 -48.3108 40.2006 -29.3714
 -38.2367 48.0068 -25.8
 -37.5984 37.522 -35.8
 -75.3158 48.0068 -4.21968
 -77.4447 48.0068 9.54601
 -88.3108 48.0068 2.9
 21.0193 -41.9932 5.4
 16.6892 -41.9932 5.8
 22.4509 -41.9932 11.1148
 24.2073 -32.9829 3.88915
 -26.1996 7.97635 5.8
 -28.0101 11.7654 5.8
 -31.2276 6.09985 5.8
 -25.0278 6.4753 12.4427
 -88.3108 -14.3987 18.8697
 15.4396 -0.355835 -71.0201
 14.439 1.70443 -89.7065
 23.5147 -13.3715 -86.7418
 7.25222 -12.6522 -84.1998
 -88.3108 24.6855 80.8549
 -88.3108 22.3239 71.0625
 -88.3108 34.8056 72.2635
 -72.9947 32.2793 80.8756
 11.6892 -17.7665 -25.8
 -28.8541 33.9888 92.7344
 -40.8461 34.401 99.8746
 -32.0697 -9.14471 -108.231
 -53.7569 5.26282 -65.6054
 51.6892 48.0068 34.5
 38.7312 48.0068 32.9922
 51.6892 34.1228 42.3789
 -0.597524 1.24331 -80.108
 -8.61206 -9.45731 -89.1102
 -88.3108 -28.1639 10.8511
 -76.7436 -41.9932 2.78394
 -88.3108 -41.9932 2.9
 -88.3108 -28.119 -4.92126
 -11.8214 23.898 -36.6
 -13.4206 31.6008 -54.5074
 -4.32983 36.5374 -36.6
 -4.50403 18.0923 -50.4326
 -33.6467 -2.43661 -5
 -36.9107 7.65808 -6.10848
 -26.6369 5.01152 -5
 -44.052 -13.3042 26.6
 -53.3108 -11.9932 26.6
 -44.7951 -21.0537 26.6
 -45.9934 -17.0284 40.9175
 -41.0364 -5.25846 -123.5
 16.6892 18.0068 26.6
 16.6892 3.00676 26.6
 21.5616 14.6541 39.6895
 -88.3108 -11.9932 -123.5
 -88.3108 -4.85621 -111.489
 -23.7173 13.9942 -15
 -19.1314 11.602 -10.7679
[...]
POINT_DATA 2712


SCALARS Electric_potential float 1
LOOKUP_TABLE default
 75.284 74.9045 74.6784 75.0186 71.2484 71.4372 71.1614 71.1338 69.677 69.2836 70.5375 70.0167 68.6615 68.1688 67.7434 68.8081 71.3728 71.5177 71.8241 71.3311 74.9456 73.8446 73.22 74.3134 70.9987 70.9979 70.999 70.9991 68.4153 69.6738 67.0308 67.3742 70.9827 70.9714 70.9869 70.9733 3.37961e-05 1.10554e-05 -7.81369e-06 0.000487113 70.9954 70.9953 70.9959 70.9964 76.0328 0.00891971 0.00185923 0.00355516 0.0134366 0.000100858 0.00376286 0.000340382 0.00049325 70.9974 70.9965 70.9965 3.70064 4.49877 5.07362 3.93301 3.70601 3.18076 3.52409 0.0217905 0.183497 0.147266 0.0455647 77.8162 76.3263 77.0478 78.1102 75.1882 74.1281 73.8136 74.4762 71.0061 70.9949 70.9986 70.9948 73.9355 73.5612 72.9458 74.1139 70.9901 70.9924 70.996 70.9944 63.8336 62.575 59.2356 61.4951 70.9961 70.9966 70.9966 70.9961 71.0047 71.0189 71.0121 71.0066 70.9951 70.9949 70.995 70.9951 70.955 70.9283 70.9528 70.9702 71.3058 70.9898 70.9848 70.9894 70.991 70.9927 70.9961 70.9969 70.9928 70.9512 70.9384 71.0952 71.0287 73.3017 73.5899 73.2305 73.8538 0.000278496 0.0103166 0.00662365 0.0161048 64.4657 70.9759 70.9838 70.9844 70.9915 70.9968 70.996 70.995 3.79751 2.67257 2.72152 3.34976 3.16901 2.49695 2.45076 70.9949 70.9946 70.9946 70.9948 70.9941 75.733 77.507 75.8205 75.25 76.2121 75.1267 76.612 73.0681 74.087 73.8078 74.7213 0.000304184 0.000370791 0.000501213 0.00430559 16.7641 11.827 9.39436 11.0332 70.9699 71.2431 71.0864 71.0153 0.686973 0.544699 1.17878 1.15889 70.9959 70.9955 70.9968 70.9951 70.9936 70.9944 70.9941 71.0032 71.0097 71.0093 71.0034 -5.89754e-05 -1.87749e-05 -2.25315e-05 0.000102277 75.9517 75.0299 75.7555 75.5165 70.973 70.9829 70.9838 70.9813 70.897 70.931 70.8873 70.9411 71.02 71.0768 71.0712 71.0051 74.3716 73.5229 70.8592 71.8218 70.9367 70.9011 71.589 71.7509 71.4509 71.462 70.146 70.4717 69.1702 69.9718 0.910119 2.2641 0.658416 -8.8949e-07 5.52225e-05 5.87499e-05 70.9863 70.9907 70.9902 70.9885 70.9945 70.9948 70.9946 70.9947 55.7342 58.0571 63.2387 53.2902 68.612 69.229 70.146 71.7737 72.1308 72.5855 70.9971 70.9966 70.9961 0.108841 0.174567 0.244804 0.195214 15.88 25.2994 12.9257 8.93793 4.44676e-05 0.000696887 0.00288101 0.000180394 77.4838 76.8298 76.1871 76.7711 73.9149 73.8341 73.6734 74.3474 70.9206 70.9646 63.2609 62.2139 65.8294 66.7918 71.7695 71.2992 71.3501 71.0549 71.1404 71.2548 70.9748 74.5831 74.7956 75.2452 74.8888 70.9939 70.9946 70.9935 70.9956 70.9954 70.9955 5.26414e-06 -0.000121535 -3.52839e-06 70.868 70.8318 70.8416 70.8842 71.052 71.2413 71.0542 70.9929 70.9903 70.9833 66.3851 67.976 68.7142 67.7675 1.55969 2.15475 1.62695 1.65714 78.6395 80 77.4145 75.5847 70.9942 70.9941 70.9939 70.9941 0.00126604 0.00846277 0.00100227 0.00107735 70.9933 70.9946 70.9947 70.9946 70.9983 70.9972 71.0415 71.0401 70.1528 72.912 74.1797 73.3681 73.6262 2.42103e-07 2.08712e-06 1.44073e-06 -2.3776e-07 70.9774 71.0063 71.0031 71.0369 71.0318 71.0312 71.035 4.49013 4.58797 4.2565 5.95162 71.2202 70.9968 70.9963 70.9974 70.9967 73.4834 72.9883 73.083 73.5386 -1.87547e-05 76.1213 76.1839 70.995 70.993 71.4267 71.3248 71.6921 70.9958 70.9958 71.1422 71.086 71.0949 71.0572 70.9932 70.9932 70.9925 70.9942 0.0986717 0.101512 0.297116 69.5297 70.5379 69.8587 70.6863 70.9947 70.2935 70.3116 70.9328 70.9944 70.9942 0.110642 0.198256 71.0044 70.9882 70.994 70.9466 67.0294 64.2562 74.7292 73.6935 80 76.6197 77.71 75.5259 0.0919376 0.0939126 0.14196 71.3795 71.5697 71.2718 71.2379 71.2238 71.004 71.0027 70.9975 70.9858 -0.00023783 70.9967 70.9984 70.9911 70.9922 70.991 70.9918 70.992 70.9931 70.9926 70.9926 74.5557 74.2862 74.2751 74.3571 70.996 70.9963 70.9961 70.9958 70.9711 70.9814 70.9733 70.9801 70.9892 70.9922 0.702412 0.415422 75.1147 75.1785 74.5784 74.302 74.2374 74.2265 70.9962 70.9959 70.9965 44.945 58.2409 47.8281 0.0255303 0.0634053 0.0318308 0.171437 0.0864208 0.19072 0.0484377 70.9898 7.47251 4.80671 5.68719 6.6192 70.9928 70.9932 70.9937 70.9942 0.0425348 0.0454251 0.0356992 70.9962 70.9956 70.9955 70.9955 70.9958 70.9955 70.9959 70.9956 70.9951 71.2819 71.2605 70.9929 70.9936 70.9951 70.9946 70.9933 70.9272 70.9817 71.0594 72.1592 71.841 72.5362 62.6029 61.4117 64.4447 66.458 70.9948 70.9945 70.9876 70.9891 70.9851 70.9878 73.9171 73.5294 73.8563 74.2992 0.562629 0.434732 0.442521 0.111377 54.1308 62.4586 69.4522 70.7717 70.3171 0.000187805 3.71653e-05 3.41307 4.35275 3.80767 0.227719 0.258787 0.19797 70.9952 70.9953 4.68798 4.82497 3.71577 69.2747 69.0939 70.3649 70.3067 4.7207 4.37389 4.39059 6.28349 68.6892 70.2862 70.2123 70.2809 0.0494067 71.0011 70.9989 71.0011 0.0690703 73.6559 73.4061 74.3121 74.0229 1.0291 1.99396 0.652555 0.662155 0.102594 0.10776 0.226976 70.9811 59.8806 0.111261 0.0977652 4.87968 3.79528 71.0216 71.0219 71.0707 71.0093 71.6091 71.5416 71.1746 71.7954 72.7413 72.0671 72.659 72.2528 70.9934 70.9938 70.994 0.433219 0.816609 0.169799 0.348354 0.366973 0.110384 0.263914 0.0913117 0.0706509 70.9964 70.9968 70.9965 3.70934 74.3093 70.9836 68.3957 68.3323 68.4394 0.239851 70.9947 4.72818e-05 70.9967 70.9966 70.9952 70.9952 70.9954 70.9569 70.9512 70.9698 70.9724 74.6611 2.64546 2.44253 3.5132 4.39663 2.96383 4.73494 2.82986 72.0696 70.8412 72.1754 72.4523 71.6658 74.894 75.4898 74.3559 70.8223 70.6289 70.9668 74.3961 73.996 73.9471 70.9951 70.9945 70.9486 73.5098 73.3635 74.571 73.0346 4.00355 5.20261 6.36242 4.08671 75.4565 72.2631 72.5495 71.2456 71.4376 72.6936 72.2317 72.5933 72.3513 74.4186 74.6045 73.9864 74.3302 70.9939 70.9959 70.9937 70.9986 70.9991 71.0003 71.0032 56.8986 62.7683 63.557 -3.70924e-06 3.19162e-07 9.69071e-07 72.0293 66.0315 68.7614 69.5129 71.6839 57.761 43.9455 56.6 12.019 25.9606 70.9912 70.9878 70.9889 70.9915 12.2666 8.10777 7.8101 6.74229 70.9953 70.997 70.9953 72.3836 72.7322 72.0172 72.0775 80 80 80 77.0152 70.9977 70.9972 70.9967 9.64833 7.20103 3.71725 3.41486 2.82452 5.41863 0.00291746 0.00558642 0.00505823 0.0410932 0.0206715 0.00773615 0.0481649 0.0640244 0.0189965 0.000106821 0.00108309 0.00183214 70.9949 70.9952 71.4426 70.6887 70.7921 72.3098 72.9896 72.5126 71.9199 71.161 71.0388 71.1441 73.2511 73.5119 74.3683 75.3183 74.515 70.9968 70.9972 73.5625 73.4355 72.6848 72.2411 0.00828342 0.0117359 70.9956 70.9957 70.9954 42.5264 27.8096 38.8792 71.7819 72.061 71.8706 71.5177 77.1643 77.3676 70.9968 0.00153485 0.0195661 70.998 70.999 74.4426 74.2133 70.5082 71.6649 71.7853 1.67598 1.7867 2.59719 5.81425 4.44469 4.96393 1.54032 0.000198324 73.2843 70.9932 70.9928 70.9929 70.9934 0.000198538 0.00419911 0.000834208 73.5212 73.1003 73.14 70.9978 70.9974 70.9971 80 80 70.9953 70.9956 77.229 0.792444 2.203 9.48313 70.9945 70.9941 70.9947 73.6878 72.752 73.1861 73.5223 72.8794 70.993 70.9935 70.9932 70.9647 70.9341 70.9791 70.9939 70.9941 70.9939 70.9936 -2.39696e-06 -8.32611e-07 -9.67672e-07 -6.05183e-07 71.6953 70.9934 70.9932 80 77.5327 78.005 76.8371 74.3452 73.6141 4.68402 4.60385 5.94142 70.695 70.3366 70.3639 63.8092 66.3471 67.6835 65.5998 66.1139 67.3787 70.9952 72.7155 71.7063 72.3727 1.01773 2.26842 71.0342 70.9803 70.9964 70.9949 74.5436 75.0714 74.5224 70.9967 70.9964 70.996 70.9935 70.9933 71.9452 68.0394 70.9969 70.9969 70.9973 70.9971 70.9986 70.9866 74.3175 75.7187 77.0879 77.3817 70.9945 0.000858618 0.0113629 70.9994 0.377797 0.13405 3.67975 4.23395 61.7985 2.23734 2.06747 2.42408 2.31187 0.000487521 -0.00199432 0.00119092 0.000320423 77.4564 76.4069 77.7836 70.9955 70.995 70.9955 70.9952 1.96655e-06 -1.31183e-06 1.4159e-05 2.69399e-05 70.9979 70.9988 70.9948 80 77.968 70.9925 70.996 70.9963 70.9962 -3.11331e-06 8.24579e-07 6.00278e-07 73.6423 72.9461 73.8372 73.9665 75.5758 77.4481 70.9579 70.9539 13.4646 8.24622 7.16838 70.994 70.9937 71.986 72.8573 71.2652 71.7122 71.4142 72.4409 72.2156 71.6371 0.85675 70.9909 70.9924 70.9927 73.4746 74.1887 75.8634 74.2143 0.00042694 0.000127351 0.00303878 70.1708 71.0897 70.6552 70.7162 -9.63138e-07 70.3384 70.3512 70.7169 70.9392 75.3131 75.1035 70.992 70.993 75.2575 0.158397 0.0654058 71.0168 71.0133 71.0081 71.0085 70.9992 70.9938 70.9939 70.9936 77.1849 75.5538 76.4251 70.997 70.9968 70.9969 4.05598 5.63113 71.0309 71.0373 71.0208 71.015 70.9958 70.9963 70.9963 71.0986 70.9965 1.93208e-06 70.9502 70.948 71.0128 4.3366 70.9969 70.9975 -9.3261e-07 71.2356 71.503 71.7793 71.5688 74.8271 74.7064 73.7711 72.6911 71.128 70.9886 70.989 70.9961 70.996 70.8326 0.34637 0.108989 0.0796941 75.7333 3.03312 2.60506 2.39178 2.63708 74.6167 0.000130515 0.000539489 4.45343e-06 70.9819 70.9663 70.9931 9.8114e-05 4.77563e-05 56.7228 58.0099 4.26585 4.21095 70.9984 70.9989 70.9978 70.879 70.8675 70.9782 0.137081 72.4773 70.9934 0.00762762 0.0110851 0.0488939 70.9952 70.9956 70.9956 70.9949 70.9942 70.9981 69.5612 68.0346 67.4696 3.98845 71.4126 71.6 71.3336 70.9939 74.9522 70.9957 70.9962 76.6228 80 70.9949 66.8779 70.9867 70.9958 0.0964647 0.109399 6.96241 5.55318 80 78.469 71.1217 71.7576 72.2529 2.17476 1.08509 1.92895 0.686437 0.0891309 0.0973166 0.106952 0.20728 78.4748 80 76.9055 69.0496 69.3074 2.44794 3.3214 3.04892 3.91125 2.54811 3.25855 1.74824 71.7361 72.4072 72.2494 0.29188 76.0725 75.6059 -1.93053e-05 3.28967e-07 71.4145 70.3108 66.4694 70.9966 70.9958 0.00459451 0.001967 1.57572 75.0271 74.8167 75.7531 70.9947 0.125323 0.289787 0.167998 67.5439 67.4342 0.0879526 72.7201 0.00569924 -0.00989325 0.0458655 0.00342142 0.0224242 73.103 74.531 74.558 74.2304 0.0669198 0.214848 74.9901 70.9924 70.9924 0.00827706 4.87027 0.0749211 72.3657 71.5876 72.1668 71.5509 71.7154 71.4228 71.2567 70.9953 70.9977 71.0104 70.9933 70.9935 70.993 74.2065 71.0227 71.0169 74.6003 72.3817 72.5165 73.0861 0.000340989 68.7103 67.6914 0.00082018 0.634401 0.111546 70.9956 70.8876 70.9441 70.8748 70.9806 70.9951 0.0470076 0.0686286 74.1195 70.9917 15.4906 2.02863 71.0002 2.77273e-06 1.98572e-06 -7.63295e-05 -1.10206e-05 73.1308 73.4238 73.3126 70.9882 70.9888 66.1415 64.3332 70.9342 71.9509 71.4892 71.1386 71.0081 71.1193 70.9932 70.9499 70.9656 70.9716 71.032 71.0239 71.0198 71.0207 71.0095 69.8386 69.0388 68.9524 69.4773 71.0275 71.0373 71.0241 71.0369 70.9949 70.9945 70.9948 70.9949 69.173 68.4951 71.1367 71.0556 72.4355 0.412962 0.0885217 72.0569 70.9976 70.9974 70.9948 74.4682 71.0233 71.0145 4.59726 3.54143 70.9809 74.2024 73.2116 73.6121 70.9919 70.9922 70.9915 7.70753 6.48792 70.9959 70.9959 0.000320745 70.9947 70.9946 70.9948 71.0056 71.0015 71.0051 71.0016 35.7048 4.24806 74.2068 73.9621 0.00102679 0.00224902 1.54412 1.53214 71.004 70.9206 70.781 71.0889 70.9784 74.3839 75.6974 74.834 72.5595 2.54394 3.40391 71.0017 71.0765 67.9971 70.9938 71.2227 2.70018 70.9423 70.9764 70.9937 76.2745 76.8934 76.132 73.8545 0.458285 0.0567801 0.101824 0.0322182 74.1389 74.3911 74.4792 70.9944 70.9941 70.9937 70.9942 70.9946 73.7706 0.0570129 0.0986188 75.8911 72.4673 56.5178 60.6222 75.3249 77.1325 75.6486 74.3483 74.5618 74.367 74.1927 73.746 72.767 70.9816 70.9762 74.2434 70.9966 0.11136 1.192 0.0209226 0.0524625 0.0134653 0.0295982 70.9956 70.9957 3.30657 1.87204 70.9941 70.9936 70.9939 70.9969 0.0225306 0.00280574 70.9958 70.9972 70.9972 73.9313 74.1224 73.8243 74.3362 71.0173 71.0335 70.9933 9.30908 7.0533 3.13484 3.64864 0.0484267 0.0226078 0.101786 70.4983 68.9119 4.26586 67.9156 68.3759 0.115717 69.3788 69.4266 0.269579 0.048745 0.0516962 75.0765 71.1176 70.1363 70.7078 4.21965 70.9977 70.9958 1.8884 1.74695 2.01269 1.93499 73.5189 70.9956 70.9949 71.0039 70.8092 4.56098 4.35027 6.24897 0.000465957 0.000217953 0.000294687 0.0355825 0.00591382 0.040243 0.0234158 0.00625072 74.0014 70.9973 74.4685 -1.30041e-05 74.3532 70.7384 70.2631 70.9962 70.9962 70.9956 -7.28128e-05 5.95927e-05 71.0003 74.8936 75.0295 72.5347 71.0087 71.0215 73.4064 73.1871 71.073 70.9742 70.9449 80 71.5108 71.7416 -5.92895e-05 26.9934 70.9825 70.9789 71.1026 71.0548 71.0577 72.838 70.3699 70.6861 72.0227 74.5616 73.5034 73.2297 71.0553 70.8973 70.4499 70.2841 74.158 70.995 4.33345 5.40629 70.9957 70.9807 70.7465 70.7572 54.3762 4.13653 6.76497 4.09812 3.44899 70.9977 70.9979 72.8413 70.9953 80 78.5876 72.6036 70.9972 67.5549 12.8699 71.6488 72.9072 80 0.0795885 70.9903 70.9905 70.9891 67.8373 69.5863 70.9959 70.9617 67.8932 66.0005 67.3501 67.9092 72.8905 0.0468696 0.106359 72.0386 2.80705 70.9802 76.5119 73.0166 72.1493 70.9903 70.9934 71.1479 71.1275 73.2189 70.9891 73.7417 73.6729 71.26 72.0986 70.9962 71.004 70.9948 70.995 70.9081 69.7873 4.87467 45.9469 2.4327 2.81 70.7617 71.2698 71.0021 71.0006 70.9991 70.9975 70.9946 71.0102 70.9967 70.9991 16.697 13.1988 10.7252 70.9963 75.2943 71.1335 0.0510998 0.0480938 0.0174286 3.63 4.38579 7.65327 4.87667 70.1696 70.9907 66.3207 3.25569e-05 75.1521 74.182 73.9244 75.1811 74.3656 71.4918 71.7756 70.9972 70.9883 70.9986 -4.48777e-07 71.0002 72.3501 70.7401 70.8182 71.0015 70.9709 71.3491 71.8205 71.0534 71.0407 77.833 -5.68262e-05 -1.52443e-05 0.009601 70.7704 77.4736 0.0182279 0.00521717 0.00613419 0.274579 0.308266 0.0680603 0.0761095 71.2162 70.9049 70.9957 77.3078 71.0001 71.002 70.9989 0.000371699 0.0223048 0.00962729 0.0269636 0.00990067 0.0162182 70.9941 71.0343 -1.75587e-05 4.85092e-06 -9.8666e-06 72.112 72.4068 72.257 27.2082 35.2116 65.4186 69.9398 74.2162 3.58127 70.9957 80 76.5238 4.3166 4.45852 76.5427 2.79484 2.96729 70.8938 62.6762 70.9944 70.795 74.3915 70.9916 70.9931 71.0012 70.9984 70.9976 1.73951e-05 70.9976 13.5672 17.5211 70.995 70.9912 74.9639 72.3957 70.9943 70.9944 70.9946 0.0291793 74.5684 72.8834 70.996 4.24309 71.0292 2.20178 2.21932 2.32068 71.0024 0.00601615 0.447114 68.9603 76.3159 70.4394 -3.79978e-06 68.8694 70.9943 71.0455 71.0507 0.390094 9.82563e-05 70.4007 70.9954 70.9953 0.00501752 70.9979 65.8583 71.0004 70.9899 3.34652 2.39531 71.7557 80 70.9926 71.3232 71.1413 69.5577 70.7574 70.9882 65.0892 69.0128 0.000398875 0.001474 -0.0003808 70.9939 70.9923 0.00101712 73.1115 65.6985 15.6132 71.1768 70.991 45.0688 70.9915 70.9919 70.9927 70.996 71.2715 67.423 68.1485 71.5779 -2.01547e-06 -2.17482e-05 -8.19112e-05 70.9898 70.9854 0.000387075 0.00896441 0.00821997 0.00018219 70.995 70.995 70.9944 71.0737 66.8571 70.9961 74.3135 73.9607 75.4277 73.717 71.005 71.0015 70.9945 70.9964 70.5962 0.00888869 72.9054 1.5182 0.00125572 70.9953 70.9961 70.9922 70.9925 72.8803 73.4206 70.9951 70.9933 70.995 70.9849 70.9939 72.2119 70.9765 69.5422 74.3601 70.9943 80 0.113981 73.1919 71.0041 71.0162 71.014 71.6154 71.4922 72.8164 71.0369 72.8503 0.106773 70.9925 76.2024 74.2896 70.9952 69.0542 70.577 -0.000103782 70.5342 0.0931806 76.5548 5.65232e-05 70.9947 66.0948 0.0355056 72.2781 71.765 0.0800263 0.00684724 74.4112 2.11465 70.9895 70.9822 70.9954 9.18491 4.04262 70.9968 70.9926 70.991 0.000299029 72.4682 70.5972 72.2291 70.9983 1.60707 70.728 72.9023 2.14592 0.000621535 75.2333 75.7233 77.179 0.0964597 0.979761 72.4721 72.8812 72.4816 41.7407 7.13076 72.7812 73.5852 70.9701 70.9987 3.3519 71.0175 1.29464e-05 3.7589 70.9346 70.8949 70.9968 0.0179691 71.1554 3.40532 2.8717 3.00262 59.116 73.056 3.46851e-07 -8.68573e-07 70.9299 1.10716e-06 2.23308 -0.00144032 74.3566 70.9957 27.5815 28.3031 70.9935 70.9954 56.3025 45.0561 70.2956 70.9664 0.116199 70.9935 2.42181 78.6441 80 70.9703 71.0233 69.5051 71.1686 71.0696 3.07268 71.3251 70.9937 71.0075 70.8916 70.9938 71.0204 0.0106315 6.24178 75.5388 70.9931 66.5671 2.72384 73.1739 70.9989 71.0014 68.8789 -1.49033e-05 70.9689 71.632 70.9933 0.000174357 0.000194752 80 69.1643 0.263047 1.25196 1.52001 74.5887 74.4118 74.3299 2.36517e-06 2.34214 70.9892 71.0083 71.0068 71.0056 71.0098 80 -0.00232616 -0.00183787 70.99 70.7243 70.7998 80 2.2146 70.735 70.5414 70.9972 70.9973 -4.29447e-06 1.54427 70.9721 70.9704 70.9957 70.9948 70.8973 70.9025 70.8806 80 71.1097 71.049 71.019 70.9575 1.49058 0.00570022 -0.00119473 0.0039355 -0.00105974 0.0146015 3.7832e-06 72.8521 0.000266643 71.0191 70.9735 80 71.5829 74.344 71.0122 71.0131 70.9243 70.9241 70.8893 0.000376828 71.0128 70.9226 -0.000345033 -0.00224944 8.00106e-07 -5.07764e-07 28.8664 1.59943 70.9947 8.58366e-07 5.01045 3.60222 3.40786 3.73803 3.76661 2.9965 3.15282 -2.30563e-05 0.0293588 -1.89653e-06 1.55231e-05 9.55703e-07 -6.17434e-06 -3.48396e-06 3.31153e-06 -1.61486e-06 74.3544 74.4975 0.000622021 7.71792e-07 1.28476 -0.00629952 -0.00691901 3.68911e-05 2.10142 1.45059 1.39795 -7.12834e-09 0.000102697 -8.32949e-05 -2.71496e-06 -0.00116317 1.94081 -0.00172594 69.8834 69.3522 1.64018 -9.10519e-06 0.0507617 -0.000389621 -0.000919506 -6.73011e-07 1.40968 1.4443 74.3776 74.5451 0.0178695 80 77.6596 80 -0.0025641 0.000992759 1.75201e-06 1.76927 2.17415 70.9967 70.9968 70.9998 70.9974 1.21864 1.47798 0.000362152 0.00123246 -1.01979e-06 -3.31501e-06 80 0.0139822 0.0475161 1.81296 0.00111562 1.68379e-05 3.04181 3.37472 80 0.00793042 9.2491e-07 71.2555 71.1075 80 2.21864 1.19696 5.33883e-05 -0.00329842 -2.84154e-05 76.6241 4.14268 3.51583 0.0588483 80 71.0003 -9.29933e-06 80 71.0006 0.00109573 2.3096 1.81281 2.84487e-06 -9.37183e-07 71.0253 71.0177 -2.29208e-05 72.0014 72.7585 71.0256 70.9912 70.9949 3.22086 2.92915 80 71.0331 0.0110834 76.6717 70.984 70.983 0.0152935 70.9833 70.9863 1.39319 80 1.79886 2.26049 0.00163162 -0.00488377 2.07539 2.03401 -0.00116923 2.9241e-06 70.9893 71 68.3875 68.3434 70.8739 70.9978 70.9915 71.0173 70.995 70.5006 70.9922 9.0488e-07 2.0927 2.10082 -0.000443239 0.000808656 80 80 71.0104 70.9366 70.9592 76.552 70.8224 70.7753 70.8332 70.9958 0.0724533 0.0412764 70.9934 70.9815 71.0068 70.9831 70.9851 70.9608 70.9731 70.9526 71.0172 3.87372 74.4149 71.4134 71.0059 71.0032 80 -1.55816e-06 -1.50945e-05 -0.000211512 3.39012e-07 -0.000181857 1.35896 74.3355 74.3857 70.9931 70.8771 59.4199 71.0089 71.0051 74.5267 74.5793 70.7859 71.0149 -2.06943e-06 70.9802 71.012 70.9952 71.0043 71.0148 71.022 70.9772 70.9911 73.9936 73.0573 73.2215 71.0917 16.8677 75.7717 72.156 71.0286 70.9949 70.9916 70.7425 70.9955 70.9947 4.13103 71.0945 0.000286749 75.8424 71.3052 2.9916e-06 -5.27289e-16 -1.13023e-15 1.65752e-15 4.32386e-16 -2.80771e-15 2.37532e-15 1.20993e-16 -2.00515e-15 1.88416e-15 -2.84545e-17 5.6909e-17 -2.84545e-17 1.26904e-16 2.38287e-15 -2.50977e-15 4.86902e-15 -2.26794e-16 -4.64223e-15 2.3547e-16 -3.27212e-17 -2.02749e-16 5.28733e-15 -2.97429e-15 -2.31305e-15 -1.69267e-16 -8.04617e-17 2.49728e-16 1.84011e-16 -2.80955e-16 9.69439e-17 1.30139e-15 -7.50884e-16 1.16076e-15 -1.0469e-16 3.20108e-15 1.44115e-15 -2.82568e-16 5.6909e-17 -2.131e-16 1.56191e-16 -5.27289e-16 -8.42566e-16 7.56454e-16 6.72822e-16 -1.42928e-15 1.28739e-16 2.67897e-15 -1.38556e-15 3.39071e-15 -3.27212e-17 2.01946e-16 -1.69225e-16 -5.79017e-18 5.6909e-17 -5.11189e-17 9.3879e-16 -6.56222e-16 -2.131e-16 -5.16717e-15 6.80752e-15 -1.64035e-15 -8.51131e-16 -2.96488e-15 3.81601e-15 -1.72571e-15 -7.53925e-16 1.00652e-15 -1.80384e-16 -8.26136e-16 -1.0355e-16 -1.46179e-16 -2.09729e-15 4.19199e-16 -3.14509e-16 -1.66817e-16 1.99538e-16 -3.27212e-17 1.34721e-16 -1.50458e-15 -1.53853e-16 8.0273e-19 2.01946e-16 -3.27212e-17 1.53314e-16 3.43266e-16 -2.02749e-16 -1.40517e-16 3.44698e-16 -7.77085e-16 -1.38556e-15 -5.79017e-18 3.43967e-15 -3.78437e-15 3.44698e-16 -6.86533e-17 -1.30885e-16 5.64943e-16 -3.65065e-17 -5.79017e-18 3.24667e-17 4.41633e-15 -1.66817e-16 -8.39703e-16 1.01374e-16 1.01374e-16 -2.02749e-16 -5.92995e-16 2.49728e-16 -1.97087e-16 -5.26411e-17 -2.5793e-16 4.64587e-15 -4.38794e-15 4.16948e-16 -1.32846e-15 -2.2477e-15 6.4961e-17 -9.74277e-17 -1.61905e-16 6.4961e-17 9.69439e-17 1.01374e-16 1.01374e-16 -3.57756e-15 2.71402e-16 4.31445e-17 -1.87906e-16 9.69439e-17 -2.83988e-16 -3.65065e-17 -2.84545e-17 6.4961e-17 5.6909e-17 4.22756e-16 4.16948e-16 -8.39703e-16 -6.86533e-17 -1.13023e-15 1.06539e-15 5.02416e-16 1.36985e-15 -5.27289e-16 -2.00515e-15 2.70702e-17 -1.17921e-15 -5.05429e-15 3.42447e-17 6.60314e-16 -1.0355e-16 7.33512e-16 -6.02628e-16 7.62262e-16 -6.86533e-17 4.0309e-16 -4.03892e-16 1.43698e-15 -1.29341e-15 -6.31963e-16 -3.78437e-15 2.01946e-16 3.43967e-15 2.36305e-15 2.49728e-16 -1.69225e-16 -3.27212e-17 2.01946e-16 5.0022e-15 1.67695e-16 -5.79017e-18 4.0309e-16 6.6