# vtk DataFile Version 2.0
Exported by getfem++
ASCII
DATASET UNSTRUCTURED_GRID
POINTS 376 float
 43.9948 0 59.8838
 44.0913 0 44.9174
 36.7749 14.2865 57.426
 52.6582 13.0812 59.9491
 57.0128 79 52.4594
 56.8945 79 37.3958
 70 79 45
 55.6033 61.6337 44.2705
 21 79 108.413
 34.9843 79 108.846
 28 79 120
 21.5086 68.0588 120
 42 79 0
 48.5564 79 10.5199
 34.9783 79 11.135
 35.0208 67.4997 0
 43.9749 0 74.8385
 32.5781 16.0944 72.9628
 30.8673 0 82.1532
 35.1711 13.3727 90.0323
 70 24.0138 26.0148
 70 36.6288 29.1324
 70 37.7541 15.1067
 53.9159 35.5285 30.0611
 34.9783 0 11.135
 35.008 11.6409 0
 48.5564 0 10.5199
 42 0 0
 0 39.6938 106.493
 0 23.3505 105.077
 0 32.69 92.4723
 19.803 34.7271 101.508
 70 13.8846 67.2523
 56.9987 0 67.4469
 70 0 75
 70 11.6177 82.8711
 27.9135 58.397 0
 21.5086 68.0588 0
 36.038 63.3561 15.7898
 18.9697 38.2461 75.1494
 33.5279 42.2217 68.3243
 35 43.6598 84.7588
 37.6154 28.1927 81.8437
 51.1737 46.6361 41.4572
 40.0172 61.3647 41.1937
 43.0577 51.3401 58.3062
 70 66.6403 53.5928
 28 0 120
 34.9843 0 108.846
 21.3781 11.3701 120
 35.008 11.6409 120
 21.3781 11.3701 0
 28 0 0
 70 32.2101 66.5251
 70 25.1147 79.7029
 48.3912 22.5409 71.7169
 53.8313 39.6356 120
 41.3928 25.5798 120
 38.964 39.7687 120
 41.4785 40.3409 101.722
 0 23.2059 53.0852
 0 30.5092 40.5488
 0 38.996 53.0376
 18.0363 38.7302 51.0119
 30.8644 79 38.3677
 44.0913 79 44.9174
 31.1148 79 52.3141
 28.5464 0 24.1651
 21.1459 0 11.1039
 15.2252 14.6162 14.5709
 35.2067 15.6447 15.8387
 47.3632 56.0815 25.0818
 0 11.6177 82.8711
 0 11.3662 97.2735
 0 0 90
 14.9535 0 83.4558
 35.0208 67.4997 120
 0 53.9462 77.4536
 0 66.8985 68.5227
 0 66.6417 82.8743
 15.5406 59.9782 83.9565
 28 79 0
 42.3769 79 100.24
 48.6021 79 109.386
 34.4913 63.2508 104.115
 28.4474 79 95.7903
 14.6484 65.6575 106.234
 15.4844 16.3393 58.4417
 28.343 28.0617 61.4731
 17.0638 14.8205 73.8805
 56.2806 18.6983 84.5266
 42.3001 79 19.671
 54.5375 65.1022 14.5019
 41.3949 53.6967 0
 38.964 39.7687 0
 53.8313 39.6356 0
 43.3052 38.8989 18.364
 21.1459 79 11.1039
 42 79 120
 0 43.5028 38.6932
 14.9535 79 83.4558
 0 79 90
 0 67.6544 96.9539
 15.2621 79 36.5885
 28.5464 79 24.1651
 14.6568 61.7484 33.9317
 70 31.6 0
 57.4996 22.3731 0
 70 22.3939 12.2258
 30.8673 79 82.1532
 21.8962 79 74.2784
 57.0096 79 82.5
 56.2586 79 97.5348
 70 67.6544 96.9539
 70 79 90
 36.2955 16.1562 37.0035
 42.9659 0 31.0464
 70 79 75
 70 66.8985 68.5227
 56.9987 79 67.4469
 27.9135 58.397 120
 21.5059 54.6122 98.8798
 14.182 55.9328 120
 0 53.2137 49.5341
 38.441 36.8346 51.5549
 53.0041 40.0293 68.7495
 49 67.0543 0
 0 55.6586 105.032
 0 57.9975 90.4103
 21 0 108.413
 47.0726 22.9451 48.4117
 27.9129 20.9341 0
 24.1282 26.7131 20.4962
 14.2817 23.3394 0
 70 46.3513 92.1125
 70 53.9462 77.4536
 70 39.3768 79.3315
 52.9959 39.216 87.0598
 23.3213 56.4088 69.3345
 33.6841 64.6624 59.7473
 23.2421 55.4361 46.1853
 15.432 63.9451 57.4497
 22.0517 79 59.8011
 70 66.6417 82.8743
 27.5041 32.7401 0
 42.9659 79 31.0464
 55.9949 33.7654 101.732
 70 79 30
 70 66.1924 39.3292
 70 64.1725 23.5715
 42.3001 0 19.671
 41.3928 25.5798 0
 48.9425 11.9285 0
 55.4994 14.2913 14.1354
 70 43.5028 38.6932
 70 38.996 53.0376
 70 53.2137 49.5341
 0 13.8988 38.6477
 20.7691 21.8808 41.3092
 12.6337 79 67.4915
 0 79 75
 28.4474 0 95.7903
 54.2866 36.3254 53.2076
 31.1148 0 52.3141
 30.8644 0 38.3677
 70 32.69 92.4723
 45.7283 23.803 94.7094
 15.3892 64.6007 14.1559
 57.5197 56.7478 120
 41.3949 53.6967 120
 49 67.0543 120
 48.3228 57.018 97.7516
 13.5814 39.6815 120
 27.5041 32.7401 120
 14.2817 23.3394 120
 27.9129 20.9341 120
 23.3509 17.0366 102.997
 38.6027 14.6968 105.152
 0 47.3641 25.2987
 0 54.8891 35.2853
 17.1874 41.2562 33.0569
 42 0 120
 0 79 30
 0 64.1725 23.5715
 12.3084 79 21.2431
 0 66.1924 39.3292
 70 79 60
 54.4303 63.9183 59.9507
 0 0 30
 0 11.0929 22.5
 15.2621 0 36.5885
 43.0354 79 88.8301
 34.5688 61.7661 86.7793
 0 32.2101 66.5251
 0 39.3768 79.3315
 0 25.1147 79.7029
 0 79 60
 0 66.6403 53.5928
 70 45.7288 64.9306
 70 47.3641 25.2987
 13.5814 39.6815 0
 27.4615 46.7972 0
 14.182 55.9328 0
 16.7162 41.1063 16.3528
 12.3084 0 21.2431
 0 36.6288 29.1324
 0 54.6375 12.4685
 0 37.7541 15.1067
 0 47.4 0
 48.9425 11.9285 120
 0 63.2 0
 9.93811 69.0383 0
 0 67.9592 10.606
 11.9146 0 98.594
 11.9146 79 98.594
 0 10.7148 109.277
 0 15.8 120
 9.93197 10.1019 120
 12.617 0 52.3791
 0 0 60
 12.6337 0 67.4915
 56.8945 0 37.3958
 70 0 30
 56.0755 0 21.9985
 70 11.0929 22.5
 27.4615 46.7972 120
 21.8962 0 74.2784
 70 47.4 0
 70 54.6375 12.4685
 70 13.8988 38.6477
 0 13.8846 67.2523
 31.3368 0 67.2536
 48.6021 0 109.386
 22.0517 0 59.8011
 22.2318 0 45.9182
 70 54.8891 35.2853
 57.5197 56.7478 0
 0 10.0661 52.7122
 0 0 45
 0 46.3513 92.1125
 43.9749 79 74.8385
 56.0755 79 21.9985
 70 30.5092 40.5488
 70 23.2059 53.0852
 0 31.6 120
 23.3582 22.5938 85.8436
 0 47.4 120
 49.5607 58.8311 76.8427
 70 11.3662 97.2735
 57.0096 0 82.5
 43.9948 79 59.8838
 70 55.6586 105.032
 70 57.9975 90.4103
 56.2586 0 97.5348
 54.6995 14.4858 104.926
 47.2406 21.6906 25.089
 9.38292 0 110.401
 0 45.7288 64.9306
 70 57.063 61.4357
 24.1023 54.6408 22.7975
 0 24.0138 26.0148
 31.3368 79 67.2536
 12.617 79 52.3791
 57.4996 22.3731 120
 0 31.6 0
 0 22.3939 12.2258
 22.2318 79 45.9182
 70 20.8278 91.4794
 70 0 90
 43.0354 0 88.8301
 35 38.1189 35.3126
 70 23.3505 105.077
 70 79 15
 70 63.2 0
 70 67.9592 10.606
 0 10.1746 10.1698
 70 63.2 120
 70 68.0009 109.03
 0 79 15
 0 57.063 61.4357
 0 79 105
 0 68.0009 109.03
 0 63.2 120
 70 10.7148 109.277
 70 15.8 120
 9.93197 10.1019 0
 60.0567 0 9.90097
 70 10.1746 10.1698
 57.0128 0 52.4594
 70 39.6938 106.493
 60.4884 10.0203 0
 60.1208 0 110.187
 9.93811 69.0383 120
 9.38292 79 110.401
 70 0 45
 42.3769 0 100.24
 60.4884 10.0203 120
 9.49085 0 9.46939
 70 15.8 0
 70 0 15
 9.49085 79 9.46939
 0 0 15
 0 0 105
 60.5039 69.0004 120
 60.5039 69.0004 0
 60.0567 79 9.90097
 0 15.8 0
 70 31.6 120
 0 0 75
 70 0 60
 70 10.0661 52.7122
 14 79 0
 0 79 45
 56 0 120
 0 0 0
 70 0 0
 0 0 120
 0 79 120
 70 0 120
 70 0 105
 56 79 120
 60.1208 79 110.187
 70 79 120
 70 79 0
 56 79 0
 56 0 0
 70 79 105
 0 79 0
 14 0 120
 70 47.4 120
 14 0 0
 14 79 120
 0 20.8278 91.4794
 14.182 55.9328 120.1
 21.5086 68.0588 120.1
 27.9135 58.397 120.1
 70 31.6 120.1
 53.8313 39.6356 120.1
 57.4996 22.3731 120.1
 14 79 120.1
 9.93811 69.0383 120.1
 56 0 120.1
 48.9425 11.9285 120.1
 60.4884 10.0203 120.1
 56 79 120.1
 49 67.0543 120.1
 60.5039 69.0004 120.1
 14 0 120.1
 21.3781 11.3701 120.1
 9.93197 10.1019 120.1
 70 0 120.1
 70 15.8 120.1
 70 79 120.1
 0 79 120.1
 0 63.2 120.1
 0 0 120.1
 70 63.2 120.1
 0 15.8 120.1
 70 47.4 120.1
 57.5197 56.7478 120.1
 41.3928 25.5798 120.1
 35.0208 67.4997 120.1
 41.3949 53.6967 120.1
 0 31.6 120.1
 14.2817 23.3394 120.1
 35.008 11.6409 120.1
 27.9129 20.9341 120.1
 0 47.4 120.1
 27.5041 32.7401 120.1
 13.5814 39.6815 120.1
 38.964 39.7687 120.1
 27.4615 46.7972 120.1
 42 79 120.1
 28 0 120.1
 28 79 120.1
 42 0 120.1

CELLS 1159 5923
 4 0 1 2 3
 4 4 5 6 7
 4 8 9 10 11
 4 12 13 14 15
 4 16 17 18 19
 4 20 21 22 23
 4 24 25 26 27
 4 28 29 30 31
 4 32 33 34 35
 4 36 15 37 38
 4 39 40 41 42
 4 43 44 45 7
 4 4 6 46 7
 4 47 48 49 50
 4 51 24 52 25
 4 53 32 54 55
 4 56 57 58 59
 4 60 61 62 63
 4 64 65 66 44
 4 67 68 69 70
 4 71 44 43 7
 4 72 73 74 75
 4 9 10 11 76
 4 77 78 79 80
 4 37 81 14 15
 4 9 82 83 84
 4 8 85 84 86
 4 87 17 88 89
 4 32 54 55 90
 4 91 38 13 92
 4 93 94 95 96
 4 14 81 37 97
 4 98 76 9 83
 4 62 61 99 63
 4 100 101 79 102
 4 64 103 104 105
 4 106 107 108 22
 4 109 100 110 80
 4 111 112 113 114
 4 67 115 116 70
 4 117 118 111 119
 4 120 121 122 86
 4 99 123 62 63
 4 45 124 125 40
 4 126 13 38 92
 4 127 128 102 86
 4 47 48 129 49
 4 55 2 130 3
 4 131 132 133 69
 4 134 135 136 137
 4 138 139 140 141
 4 66 139 142 141
 4 118 111 143 117
 4 120 84 121 86
 4 144 133 131 132
 4 91 145 104 38
 4 57 59 56 146
 4 5 147 148 149
 4 150 67 116 70
 4 136 53 54 125
 4 68 24 52 51
 4 151 152 153 70
 4 154 155 156 43
 4 60 157 61 158
 4 79 159 160 100
 4 18 75 161 19
 4 155 156 43 162
 4 163 1 164 115
 4 165 137 54 90
 4 166 90 137 146
 4 104 97 38 167
 4 168 169 170 171
 4 154 155 43 162
 4 172 173 174 31
 4 175 50 176 177
 4 99 178 179 180
 4 50 181 48 177
 4 182 183 184 105
 4 179 185 123 105
 4 4 46 186 187
 4 94 151 95 96
 4 119 4 186 187
 4 186 118 119 187
 4 157 188 189 190
 4 82 85 191 192
 4 193 194 195 39
 4 184 183 167 105
 4 196 78 197 141
 4 135 198 136 125
 4 21 199 22 23
 4 107 106 95 22
 4 14 13 91 38
 4 200 201 202 203
 4 204 189 188 190
 4 61 205 99 180
 4 206 207 208 203
 4 209 181 50 177
 4 178 183 179 105
 4 210 211 212 167
 4 186 46 118 187
 4 73 213 74 75
 4 65 5 4 7
 4 159 78 196 141
 4 101 100 214 102
 4 184 104 103 105
 4 215 174 216 217
 4 207 200 208 203
 4 218 219 220 87
 4 104 97 14 38
 4 221 222 223 224
 4 178 180 205 203
 4 170 76 98 83
 4 25 152 26 27
 4 79 102 128 80
 4 225 173 172 31
 4 85 192 82 84
 4 226 75 18 89
 4 227 228 95 22
 4 222 221 229 224
 4 15 12 13 126
 4 230 193 195 89
 4 56 58 169 59
 4 226 18 17 89
 4 226 17 231 89
 4 125 124 45 162
 4 175 50 49 176
 4 232 48 181 177
 4 218 233 234 87
 4 156 235 43 7
 4 6 5 148 7
 4 95 236 228 227
 4 199 21 154 23
 4 51 25 131 70
 4 237 238 157 218
 4 77 128 239 80
 4 240 191 109 192
 4 147 5 241 149
 4 154 242 155 162
 4 232 181 209 177
 4 156 235 154 43
 4 54 165 136 137
 4 218 237 219 87
 4 24 150 26 70
 4 6 148 46 7
 4 93 126 38 92
 4 206 183 178 167
 4 242 130 243 162
 4 130 2 1 3
 4 169 171 59 84
 4 122 121 127 86
 4 174 244 28 29
 4 156 155 198 162
 4 75 245 161 19
 4 16 0 231 2
 4 36 38 37 167
 4 128 121 239 80
 4 51 68 24 70
 4 32 55 53 3
 4 122 172 246 28
 4 245 17 18 89
 4 197 123 185 141
 4 65 4 187 7
 4 88 124 63 40
 4 240 247 191 192
 4 18 17 245 19
 4 61 180 99 63
 4 75 245 18 89
 4 173 174 31 176
 4 51 69 68 70
 4 44 187 45 7
 4 59 137 166 42
 4 85 121 192 84
 4 121 84 85 86
 4 248 35 249 90
 4 16 231 17 2
 4 65 4 250 187
 4 130 115 1 2
 4 217 174 49 176
 4 62 193 60 63
[...]
POINT_DATA 376


SCALARS Electric_potential float 1
LOOKUP_TABLE default
 147.632 148.224 147.729 147.629 147.925 148.521 148.22 148.249 145.713 145.696 145.255 145.255 150 149.584 149.56 150 147.04 147.115 146.751 146.44 148.971 148.848 149.403 148.811 149.56 150 149.584 150 145.789 145.845 146.343 145.986 147.34 147.333 147.034 146.723 150 150 149.376 147.028 147.298 146.648 146.763 148.361 148.371 147.694 147.881 145.255 145.696 145.255 145.255 150 150 147.369 146.848 147.164 145.255 145.255 145.255 145.977 147.901 148.396 147.903 147.983 148.483 148.224 147.931 149.044 149.561 149.424 149.374 149.008 146.723 146.153 146.441 146.7 145.255 146.937 147.29 146.723 146.68 150 146.036 145.674 145.883 146.212 145.799 147.689 147.569 147.078 146.657 149.222 149.427 150 150 150 149.274 149.561 145.255 148.47 146.7 146.441 146.166 148.553 149.044 148.658 150 150 149.517 146.751 147.063 146.737 146.143 146.166 146.441 148.537 148.772 147.034 147.29 147.333 145.255 146.09 145.255 148.041 147.961 147.281 150 145.846 146.425 145.713 148.086 150 149.189 150 146.357 146.937 146.863 146.557 147.258 147.637 148.174 147.728 147.635 146.723 150 148.772 145.977 148.814 148.445 149.068 149.222 150 150 149.441 148.47 147.903 148.041 148.472 148.366 147.331 147.034 146.212 147.896 147.931 148.483 146.343 146.255 149.44 145.255 145.255 145.255 146.134 145.255 145.255 145.255 145.255 145.927 145.842 149 148.605 148.693 145.255 148.814 149.068 149.16 148.445 147.627 147.629 148.814 149.11 148.553 146.487 146.568 147.369 146.863 146.848 147.627 147.881 147.432 149 150 150 150 149.353 149.16 148.848 149.507 149.403 150 145.255 150 150 149.581 146.101 146.101 145.679 145.255 145.255 147.929 147.627 147.331 148.521 148.814 149.13 149.11 145.255 147.063 150 149.507 148.472 147.34 147.34 145.674 147.635 148.184 148.605 150 147.915 148.22 146.357 147.04 149.13 148.396 147.901 145.255 146.605 145.255 146.961 146.153 146.737 147.632 145.846 146.425 146.143 145.851 149.008 145.634 147.432 147.57 149.098 148.971 147.34 147.929 145.255 150 149.517 148.184 146.382 146.441 146.487 148.604 145.845 149.407 150 149.581 149.598 145.255 145.688 149.407 147.57 145.848 145.688 145.255 145.679 145.255 150 149.608 149.598 147.925 145.789 150 145.643 145.255 145.634 148.22 146.036 145.255 149.626 150 149.407 149.626 149.407 145.848 145.255 150 149.608 150 145.255 147.034 147.627 147.915 150 148.22 145.255 150 150 145.255 145.255 145.255 145.848 145.255 145.643 145.255 150 150 150 145.848 150 145.255 145.255 150 145.255 146.382 -2.08403e-14 -1.73337e-14 1.48549e-14 4.61882e-14 -9.2356e-14 7.26894e-14 -4.78547e-14 5.2784e-14 -1.77291e-13 -7.31034e-15 9.34001e-14 -5.77243e-14 1.1961e-13 -1.21225e-13 1.08544e-13 8.73037e-14 -1.29214e-13 8.86301e-14 -1.90477e-13 1.91414e-13 0 -2.60072e-14 1.36725e-13 -8.97146e-14 -9.59713e-14 9.41191e-14 -5.84756e-15 -6.27719e-14 -2.69364e-14 -5.65843e-14 -7.24989e-14 1.1225e-13 2.58485e-13 -1.68773e-13 7.37578e-14 -9.99498e-14 1.36078e-14 3.5734e-14 2.7462e-14 -8.78433e-15 -1.90436e-13 9.10005e-14 -3.3794e-13
